 Entering Gaussian System, Link 0=g09
 Input=LNT.com
 Output=LNT.log
 Initial command:
 /soft/gaussian/g09/l1.exe /scratch/pieong/Gau-1972.inp -scrdir=/scratch/pieong/
 Entering Link 1 = /soft/gaussian/g09/l1.exe PID=      1977.
  
 Copyright (c) 1988,1990,1992,1993,1995,1998,2003,2009,2011,
            Gaussian, Inc.  All Rights Reserved.
  
 This is part of the Gaussian(R) 09 program.  It is based on
 the Gaussian(R) 03 system (copyright 2003, Gaussian, Inc.),
 the Gaussian(R) 98 system (copyright 1998, Gaussian, Inc.),
 the Gaussian(R) 94 system (copyright 1995, Gaussian, Inc.),
 the Gaussian 92(TM) system (copyright 1992, Gaussian, Inc.),
 the Gaussian 90(TM) system (copyright 1990, Gaussian, Inc.),
 the Gaussian 88(TM) system (copyright 1988, Gaussian, Inc.),
 the Gaussian 86(TM) system (copyright 1986, Carnegie Mellon
 University), and the Gaussian 82(TM) system (copyright 1983,
 Carnegie Mellon University). Gaussian is a federally registered
 trademark of Gaussian, Inc.
  
 This software contains proprietary and confidential information,
 including trade secrets, belonging to Gaussian, Inc.
  
 This software is provided under written license and may be
 used, copied, transmitted, or stored only in accord with that
 written license.
  
 The following legend is applicable only to US Government
 contracts under FAR:
  
                    RESTRICTED RIGHTS LEGEND
  
 Use, reproduction and disclosure by the US Government is
 subject to restrictions as set forth in subparagraphs (a)
 and (c) of the Commercial Computer Software - Restricted
 Rights clause in FAR 52.227-19.
  
 Gaussian, Inc.
 340 Quinnipiac St., Bldg. 40, Wallingford CT 06492
  
  
 ---------------------------------------------------------------
 Warning -- This program may not be used in any manner that
 competes with the business of Gaussian, Inc. or will provide
 assistance to any competitor of Gaussian, Inc.  The licensee
 of this program is prohibited from giving any competitor of
 Gaussian, Inc. access to this program.  By using this program,
 the user acknowledges that Gaussian, Inc. is engaged in the
 business of creating and licensing software in the field of
 computational chemistry and represents and warrants to the
 licensee that it is not a competitor of Gaussian, Inc. and that
 it will not use this program in any manner prohibited above.
 ---------------------------------------------------------------
  

 Cite this work as:
 Gaussian 09, Revision C.01,
 M. J. Frisch, G. W. Trucks, H. B. Schlegel, G. E. Scuseria, 
 M. A. Robb, J. R. Cheeseman, G. Scalmani, V. Barone, B. Mennucci, 
 G. A. Petersson, H. Nakatsuji, M. Caricato, X. Li, H. P. Hratchian, 
 A. F. Izmaylov, J. Bloino, G. Zheng, J. L. Sonnenberg, M. Hada, 
 M. Ehara, K. Toyota, R. Fukuda, J. Hasegawa, M. Ishida, T. Nakajima, 
 Y. Honda, O. Kitao, H. Nakai, T. Vreven, J. A. Montgomery, Jr., 
 J. E. Peralta, F. Ogliaro, M. Bearpark, J. J. Heyd, E. Brothers, 
 K. N. Kudin, V. N. Staroverov, T. Keith, R. Kobayashi, J. Normand, 
 K. Raghavachari, A. Rendell, J. C. Burant, S. S. Iyengar, J. Tomasi, 
 M. Cossi, N. Rega, J. M. Millam, M. Klene, J. E. Knox, J. B. Cross, 
 V. Bakken, C. Adamo, J. Jaramillo, R. Gomperts, R. E. Stratmann, 
 O. Yazyev, A. J. Austin, R. Cammi, C. Pomelli, J. W. Ochterski, 
 R. L. Martin, K. Morokuma, V. G. Zakrzewski, G. A. Voth, 
 P. Salvador, J. J. Dannenberg, S. Dapprich, A. D. Daniels, 
 O. Farkas, J. B. Foresman, J. V. Ortiz, J. Cioslowski, 
 and D. J. Fox, Gaussian, Inc., Wallingford CT, 2010.
 
 ******************************************
 Gaussian 09:  EM64L-G09RevC.01 23-Sep-2011
                 1-Apr-2014 
 ******************************************
 %chk=molecule
 ----------------------------------------------------------------------
 #HF/6-31G* SCF=tight Test Pop=MK iop(6/33=2) iop(6/42=6) opt # iop(6/5
 0=1)
 ----------------------------------------------------------------------
 1/18=20,19=15,38=1/1,3;
 2/9=110,12=2,17=6,18=5,40=1/2;
 3/5=1,6=6,7=1,11=9,16=1,25=1,30=1,71=1/1,2,3;
 4//1;
 5/5=2,32=2,38=5/2;
 6/7=2,8=2,9=2,10=2,15=8,20=1,28=1,33=2,42=6,50=1/1,2;
 7//1,2,3,16;
 1/18=20,19=15/3(2);
 2/9=110/2;
 99//99;
 2/9=110/2;
 3/5=1,6=6,7=1,11=9,16=1,25=1,30=1,71=1/1,2,3;
 4/5=5,16=3/1;
 5/5=2,32=2,38=5/2;
 7//1,2,3,16;
 1/18=20,19=15/3(-5);
 2/9=110/2;
 6/7=2,8=2,9=2,10=2,15=8,19=2,20=1,28=1,33=2,42=6,50=1/1,2;
 99/9=1/99;
 ---------------------
 remark line goes here
 ---------------------
 Charge =  0 Multiplicity = 1
 Symbolic Z-Matrix:
 N                    -1.66      1.559     0.901 
 C                    -1.646     0.192     0.364 
 C                    -0.374    -0.02     -0.46 
 C                    -2.872    -0.019    -0.527 
 C                    -4.141     0.069     0.322 
 C                    -5.369    -0.016    -0.586 
 C                    -4.166    -1.087     1.324 
 O                    -0.361    -1.35     -0.983 
 O                    -0.345     0.916    -1.539 
 N                     0.803     0.182     0.396 
 C                     2.045    -0.013    -0.363 
 C                     2.655    -1.341     0.004 
 O                     2.11     -2.052     0.815 
 C                     3.029     1.11     -0.029 
 O                     3.3       1.104     1.374 
 C                     2.42      2.457    -0.424 
 H                    -0.896     1.703     1.543 
 H                    -1.64      2.24      0.156 
 H                    -1.668    -0.522     1.187 
 H                    -2.897     0.751    -1.299 
 H                    -2.816    -1.001    -0.996 
 H                    -4.153     1.017     0.86 
 H                    -5.358    -0.964    -1.125 
 H                    -6.274     0.047     0.019 
 H                    -5.352     0.807    -1.3 
 H                    -3.291    -1.026     1.971 
 H                    -5.07     -1.024     1.929 
 H                    -4.154    -2.034     0.785 
 H                    -0.379    -2.039    -0.304 
 H                    -0.352     1.842    -1.258 
 H                     0.783     1.094     0.828 
 H                     1.825     0.003    -1.431 
 O                     3.803    -1.734    -0.57 
 H                     3.958     0.956    -0.578 
 H                     3.918     1.791     1.659 
 H                     3.159     3.245    -0.283 
 H                     2.118     2.425    -1.471 
 H                     1.549     2.659     0.199 
 H                     4.155    -2.594    -0.302 
 

 GradGradGradGradGradGradGradGradGradGradGradGradGradGradGradGradGradGrad
 Berny optimization.
 Initialization pass.
                           ----------------------------
                           !    Initial Parameters    !
                           ! (Angstroms and Degrees)  !
 --------------------------                            --------------------------
 ! Name  Definition              Value          Derivative Info.                !
 --------------------------------------------------------------------------------
 ! R1    R(1,2)                  1.4688         estimate D2E/DX2                !
 ! R2    R(1,17)                 1.0083         estimate D2E/DX2                !
 ! R3    R(1,18)                 1.0095         estimate D2E/DX2                !
 ! R4    R(2,3)                  1.5303         estimate D2E/DX2                !
 ! R5    R(2,4)                  1.5302         estimate D2E/DX2                !
 ! R6    R(2,19)                 1.0898         estimate D2E/DX2                !
 ! R7    R(3,8)                  1.4292         estimate D2E/DX2                !
 ! R8    R(3,9)                  1.4287         estimate D2E/DX2                !
 ! R9    R(3,10)                 1.4693         estimate D2E/DX2                !
 ! R10   R(4,5)                  1.5293         estimate D2E/DX2                !
 ! R11   R(4,20)                 1.0906         estimate D2E/DX2                !
 ! R12   R(4,21)                 1.0897         estimate D2E/DX2                !
 ! R13   R(5,6)                  1.5296         estimate D2E/DX2                !
 ! R14   R(5,7)                  1.53           estimate D2E/DX2                !
 ! R15   R(5,22)                 1.0901         estimate D2E/DX2                !
 ! R16   R(6,23)                 1.0906         estimate D2E/DX2                !
 ! R17   R(6,24)                 1.0904         estimate D2E/DX2                !
 ! R18   R(6,25)                 1.0897         estimate D2E/DX2                !
 ! R19   R(7,26)                 1.0899         estimate D2E/DX2                !
 ! R20   R(7,27)                 1.0896         estimate D2E/DX2                !
 ! R21   R(7,28)                 1.0897         estimate D2E/DX2                !
 ! R22   R(8,29)                 0.9675         estimate D2E/DX2                !
 ! R23   R(9,30)                 0.9677         estimate D2E/DX2                !
 ! R24   R(10,11)                1.4686         estimate D2E/DX2                !
 ! R25   R(10,31)                1.0093         estimate D2E/DX2                !
 ! R26   R(11,12)                1.5068         estimate D2E/DX2                !
 ! R27   R(11,14)                1.53           estimate D2E/DX2                !
 ! R28   R(11,32)                1.0905         estimate D2E/DX2                !
 ! R29   R(12,13)                1.2084         estimate D2E/DX2                !
 ! R30   R(12,33)                1.3423         estimate D2E/DX2                !
 ! R31   R(14,15)                1.4289         estimate D2E/DX2                !
 ! R32   R(14,16)                1.5301         estimate D2E/DX2                !
 ! R33   R(14,34)                1.09           estimate D2E/DX2                !
 ! R34   R(15,35)                0.967          estimate D2E/DX2                !
 ! R35   R(16,36)                1.0895         estimate D2E/DX2                !
 ! R36   R(16,37)                1.0902         estimate D2E/DX2                !
 ! R37   R(16,38)                1.0898         estimate D2E/DX2                !
 ! R38   R(33,39)                0.9671         estimate D2E/DX2                !
 ! A1    A(2,1,17)             111.0083         estimate D2E/DX2                !
 ! A2    A(2,1,18)             110.9669         estimate D2E/DX2                !
 ! A3    A(17,1,18)            111.0101         estimate D2E/DX2                !
 ! A4    A(1,2,3)              109.4948         estimate D2E/DX2                !
 ! A5    A(1,2,4)              109.4869         estimate D2E/DX2                !
 ! A6    A(1,2,19)             109.4803         estimate D2E/DX2                !
 ! A7    A(3,2,4)              109.471          estimate D2E/DX2                !
 ! A8    A(3,2,19)             109.4298         estimate D2E/DX2                !
 ! A9    A(4,2,19)             109.4644         estimate D2E/DX2                !
 ! A10   A(2,3,8)              109.4824         estimate D2E/DX2                !
 ! A11   A(2,3,9)              109.4368         estimate D2E/DX2                !
 ! A12   A(2,3,10)             109.4568         estimate D2E/DX2                !
 ! A13   A(8,3,9)              109.458          estimate D2E/DX2                !
 ! A14   A(8,3,10)             109.5022         estimate D2E/DX2                !
 ! A15   A(9,3,10)             109.4911         estimate D2E/DX2                !
 ! A16   A(2,4,5)              109.4895         estimate D2E/DX2                !
 ! A17   A(2,4,20)             109.4615         estimate D2E/DX2                !
 ! A18   A(2,4,21)             109.4936         estimate D2E/DX2                !
 ! A19   A(5,4,20)             109.4694         estimate D2E/DX2                !
 ! A20   A(5,4,21)             109.4769         estimate D2E/DX2                !
 ! A21   A(20,4,21)            109.4363         estimate D2E/DX2                !
 ! A22   A(4,5,6)              109.4763         estimate D2E/DX2                !
 ! A23   A(4,5,7)              109.4898         estimate D2E/DX2                !
 ! A24   A(4,5,22)             109.4605         estimate D2E/DX2                !
 ! A25   A(6,5,7)              109.4907         estimate D2E/DX2                !
 ! A26   A(6,5,22)             109.4183         estimate D2E/DX2                !
 ! A27   A(7,5,22)             109.4916         estimate D2E/DX2                !
 ! A28   A(5,6,23)             109.4872         estimate D2E/DX2                !
 ! A29   A(5,6,24)             109.4958         estimate D2E/DX2                !
 ! A30   A(5,6,25)             109.54           estimate D2E/DX2                !
 ! A31   A(23,6,24)            109.4395         estimate D2E/DX2                !
 ! A32   A(23,6,25)            109.4224         estimate D2E/DX2                !
 ! A33   A(24,6,25)            109.4423         estimate D2E/DX2                !
 ! A34   A(5,7,26)             109.4723         estimate D2E/DX2                !
 ! A35   A(5,7,27)             109.4815         estimate D2E/DX2                !
 ! A36   A(5,7,28)             109.4199         estimate D2E/DX2                !
 ! A37   A(26,7,27)            109.4641         estimate D2E/DX2                !
 ! A38   A(26,7,28)            109.4761         estimate D2E/DX2                !
 ! A39   A(27,7,28)            109.5134         estimate D2E/DX2                !
 ! A40   A(3,8,29)             113.9364         estimate D2E/DX2                !
 ! A41   A(3,9,30)             114.0448         estimate D2E/DX2                !
 ! A42   A(3,10,11)            110.9848         estimate D2E/DX2                !
 ! A43   A(3,10,31)            110.9588         estimate D2E/DX2                !
 ! A44   A(11,10,31)           110.9738         estimate D2E/DX2                !
 ! A45   A(10,11,12)           109.483          estimate D2E/DX2                !
 ! A46   A(10,11,14)           109.4892         estimate D2E/DX2                !
 ! A47   A(10,11,32)           109.4868         estimate D2E/DX2                !
 ! A48   A(12,11,14)           109.4729         estimate D2E/DX2                !
 ! A49   A(12,11,32)           109.459          estimate D2E/DX2                !
 ! A50   A(14,11,32)           109.4364         estimate D2E/DX2                !
 ! A51   A(11,12,13)           119.9633         estimate D2E/DX2                !
 ! A52   A(11,12,33)           120.0077         estimate D2E/DX2                !
 ! A53   A(13,12,33)           120.029          estimate D2E/DX2                !
 ! A54   A(11,14,15)           109.4645         estimate D2E/DX2                !
 ! A55   A(11,14,16)           109.5003         estimate D2E/DX2                !
 ! A56   A(11,14,34)           109.5408         estimate D2E/DX2                !
 ! A57   A(15,14,16)           109.429          estimate D2E/DX2                !
 ! A58   A(15,14,34)           109.4075         estimate D2E/DX2                !
 ! A59   A(16,14,34)           109.4851         estimate D2E/DX2                !
 ! A60   A(14,15,35)           114.0535         estimate D2E/DX2                !
 ! A61   A(14,16,36)           109.4716         estimate D2E/DX2                !
 ! A62   A(14,16,37)           109.4112         estimate D2E/DX2                !
 ! A63   A(14,16,38)           109.4939         estimate D2E/DX2                !
 ! A64   A(36,16,37)           109.4776         estimate D2E/DX2                !
 ! A65   A(36,16,38)           109.5171         estimate D2E/DX2                !
 ! A66   A(37,16,38)           109.4559         estimate D2E/DX2                !
 ! A67   A(12,33,39)           116.9444         estimate D2E/DX2                !
 ! D1    D(17,1,2,3)           -63.9231         estimate D2E/DX2                !
 ! D2    D(17,1,2,4)           176.0531         estimate D2E/DX2                !
 ! D3    D(17,1,2,19)           56.0462         estimate D2E/DX2                !
 ! D4    D(18,1,2,3)            60.0259         estimate D2E/DX2                !
 ! D5    D(18,1,2,4)           -59.9979         estimate D2E/DX2                !
 ! D6    D(18,1,2,19)          179.9952         estimate D2E/DX2                !
 ! D7    D(1,2,3,8)           -179.9687         estimate D2E/DX2                !
 ! D8    D(1,2,3,9)            -59.9992         estimate D2E/DX2                !
 ! D9    D(1,2,3,10)            59.9953         estimate D2E/DX2                !
 ! D10   D(4,2,3,8)            -59.9352         estimate D2E/DX2                !
 ! D11   D(4,2,3,9)             60.0344         estimate D2E/DX2                !
 ! D12   D(4,2,3,10)          -179.9712         estimate D2E/DX2                !
 ! D13   D(19,2,3,8)            60.031          estimate D2E/DX2                !
 ! D14   D(19,2,3,9)          -179.9994         estimate D2E/DX2                !
 ! D15   D(19,2,3,10)          -60.005          estimate D2E/DX2                !
 ! D16   D(1,2,4,5)            -64.9896         estimate D2E/DX2                !
 ! D17   D(1,2,4,20)            55.0134         estimate D2E/DX2                !
 ! D18   D(1,2,4,21)           174.9784         estimate D2E/DX2                !
 ! D19   D(3,2,4,5)            174.972          estimate D2E/DX2                !
 ! D20   D(3,2,4,20)           -65.025          estimate D2E/DX2                !
 ! D21   D(3,2,4,21)            54.9401         estimate D2E/DX2                !
 ! D22   D(19,2,4,5)            55.027          estimate D2E/DX2                !
 ! D23   D(19,2,4,20)          175.03           estimate D2E/DX2                !
 ! D24   D(19,2,4,21)          -65.005          estimate D2E/DX2                !
 ! D25   D(2,3,8,29)           -60.0634         estimate D2E/DX2                !
 ! D26   D(9,3,8,29)           179.98           estimate D2E/DX2                !
 ! D27   D(10,3,8,29)           59.9448         estimate D2E/DX2                !
 ! D28   D(2,3,9,30)            60.0064         estimate D2E/DX2                !
 ! D29   D(8,3,9,30)           179.9909         estimate D2E/DX2                !
 ! D30   D(10,3,9,30)          -59.9671         estimate D2E/DX2                !
 ! D31   D(2,3,10,11)         -179.9679         estimate D2E/DX2                !
 ! D32   D(2,3,10,31)          -56.0885         estimate D2E/DX2                !
 ! D33   D(8,3,10,11)           60.0082         estimate D2E/DX2                !
 ! D34   D(8,3,10,31)         -176.1123         estimate D2E/DX2                !
 ! D35   D(9,3,10,11)          -60.0068         estimate D2E/DX2                !
 ! D36   D(9,3,10,31)           63.8727         estimate D2E/DX2                !
 ! D37   D(2,4,5,6)            174.9471         estimate D2E/DX2                !
 ! D38   D(2,4,5,7)            -65.0146         estimate D2E/DX2                !
 ! D39   D(2,4,5,22)            55.0152         estimate D2E/DX2                !
 ! D40   D(20,4,5,6)            54.9488         estimate D2E/DX2                !
 ! D41   D(20,4,5,7)           174.9872         estimate D2E/DX2                !
 ! D42   D(20,4,5,22)          -64.983          estimate D2E/DX2                !
 ! D43   D(21,4,5,6)           -65.0108         estimate D2E/DX2                !
 ! D44   D(21,4,5,7)            55.0276         estimate D2E/DX2                !
 ! D45   D(21,4,5,22)          175.0574         estimate D2E/DX2                !
 ! D46   D(4,5,6,23)            60.0299         estimate D2E/DX2                !
 ! D47   D(4,5,6,24)          -179.984          estimate D2E/DX2                !
 ! D48   D(4,5,6,25)           -59.9622         estimate D2E/DX2                !
 ! D49   D(7,5,6,23)           -60.0079         estimate D2E/DX2                !
 ! D50   D(7,5,6,24)            59.9781         estimate D2E/DX2                !
 ! D51   D(7,5,6,25)           180.0            estimate D2E/DX2                !
 ! D52   D(22,5,6,23)          179.9876         estimate D2E/DX2                !
 ! D53   D(22,5,6,24)          -60.0264         estimate D2E/DX2                !
 ! D54   D(22,5,6,25)           59.9955         estimate D2E/DX2                !
 ! D55   D(4,5,7,26)            59.9846         estimate D2E/DX2                !
 ! D56   D(4,5,7,27)           179.9829         estimate D2E/DX2                !
 ! D57   D(4,5,7,28)           -59.9906         estimate D2E/DX2                !
 ! D58   D(6,5,7,26)          -179.9858         estimate D2E/DX2                !
 ! D59   D(6,5,7,27)           -59.9875         estimate D2E/DX2                !
 ! D60   D(6,5,7,28)            60.039          estimate D2E/DX2                !
 ! D61   D(22,5,7,26)          -60.0262         estimate D2E/DX2                !
 ! D62   D(22,5,7,27)           59.9721         estimate D2E/DX2                !
 ! D63   D(22,5,7,28)          179.9986         estimate D2E/DX2                !
 ! D64   D(3,10,11,12)        -104.8498         estimate D2E/DX2                !
 ! D65   D(3,10,11,14)         135.1299         estimate D2E/DX2                !
 ! D66   D(3,10,11,32)          15.1521         estimate D2E/DX2                !
 ! D67   D(31,10,11,12)        131.2793         estimate D2E/DX2                !
 ! D68   D(31,10,11,14)         11.259          estimate D2E/DX2                !
 ! D69   D(31,10,11,32)       -108.7188         estimate D2E/DX2                !
 ! D70   D(10,11,12,13)          0.0113         estimate D2E/DX2                !
 ! D71   D(10,11,12,33)        179.9936         estimate D2E/DX2                !
 ! D72   D(14,11,12,13)        120.0416         estimate D2E/DX2                !
 ! D73   D(14,11,12,33)        -59.9761         estimate D2E/DX2                !
 ! D74   D(32,11,12,13)       -120.0075         estimate D2E/DX2                !
 ! D75   D(32,11,12,33)         59.9748         estimate D2E/DX2                !
 ! D76   D(10,11,14,15)         59.0081         estimate D2E/DX2                !
 ! D77   D(10,11,14,16)        -60.9538         estimate D2E/DX2                !
 ! D78   D(10,11,14,34)        178.9687         estimate D2E/DX2                !
 ! D79   D(12,11,14,15)        -61.0184         estimate D2E/DX2                !
 ! D80   D(12,11,14,16)        179.0197         estimate D2E/DX2                !
 ! D81   D(12,11,14,34)         58.9422         estimate D2E/DX2                !
 ! D82   D(32,11,14,15)        179.0169         estimate D2E/DX2                !
 ! D83   D(32,11,14,16)         59.0549         estimate D2E/DX2                !
 ! D84   D(32,11,14,34)        -61.0226         estimate D2E/DX2                !
 ! D85   D(11,12,33,39)       -179.9987         estimate D2E/DX2                !
 ! D86   D(13,12,33,39)         -0.0164         estimate D2E/DX2                !
 ! D87   D(11,14,15,35)        179.9916         estimate D2E/DX2                !
 ! D88   D(16,14,15,35)        -60.0028         estimate D2E/DX2                !
 ! D89   D(34,14,15,35)         59.9495         estimate D2E/DX2                !
 ! D90   D(11,14,16,36)       -174.1518         estimate D2E/DX2                !
 ! D91   D(11,14,16,37)        -54.1806         estimate D2E/DX2                !
 ! D92   D(11,14,16,38)         65.7778         estimate D2E/DX2                !
 ! D93   D(15,14,16,36)         65.8645         estimate D2E/DX2                !
 ! D94   D(15,14,16,37)       -174.1643         estimate D2E/DX2                !
 ! D95   D(15,14,16,38)        -54.2059         estimate D2E/DX2                !
 ! D96   D(34,14,16,36)        -54.0402         estimate D2E/DX2                !
 ! D97   D(34,14,16,37)         65.9311         estimate D2E/DX2                !
 ! D98   D(34,14,16,38)       -174.1106         estimate D2E/DX2                !
 --------------------------------------------------------------------------------
 Trust Radius=3.00D-01 FncErr=1.00D-07 GrdErr=1.00D-07
 Number of steps in this run=    213 maximum allowed number of steps=    234.
 GradGradGradGradGradGradGradGradGradGradGradGradGradGradGradGradGradGrad

                          Input orientation:                          
 ---------------------------------------------------------------------
 Center     Atomic      Atomic             Coordinates (Angstroms)
 Number     Number       Type             X           Y           Z
 ---------------------------------------------------------------------
      1          7           0       -1.660000    1.559000    0.901000
      2          6           0       -1.646000    0.192000    0.364000
      3          6           0       -0.374000   -0.020000   -0.460000
      4          6           0       -2.872000   -0.019000   -0.527000
      5          6           0       -4.141000    0.069000    0.322000
      6          6           0       -5.369000   -0.016000   -0.586000
      7          6           0       -4.166000   -1.087000    1.324000
      8          8           0       -0.361000   -1.350000   -0.983000
      9          8           0       -0.345000    0.916000   -1.539000
     10          7           0        0.803000    0.182000    0.396000
     11          6           0        2.045000   -0.013000   -0.363000
     12          6           0        2.655000   -1.341000    0.004000
     13          8           0        2.110000   -2.052000    0.815000
     14          6           0        3.029000    1.110000   -0.029000
     15          8           0        3.300000    1.104000    1.374000
     16          6           0        2.420000    2.457000   -0.424000
     17          1           0       -0.896000    1.703000    1.543000
     18          1           0       -1.640000    2.240000    0.156000
     19          1           0       -1.668000   -0.522000    1.187000
     20          1           0       -2.897000    0.751000   -1.299000
     21          1           0       -2.816000   -1.001000   -0.996000
     22          1           0       -4.153000    1.017000    0.860000
     23          1           0       -5.358000   -0.964000   -1.125000
     24          1           0       -6.274000    0.047000    0.019000
     25          1           0       -5.352000    0.807000   -1.300000
     26          1           0       -3.291000   -1.026000    1.971000
     27          1           0       -5.070000   -1.024000    1.929000
     28          1           0       -4.154000   -2.034000    0.785000
     29          1           0       -0.379000   -2.039000   -0.304000
     30          1           0       -0.352000    1.842000   -1.258000
     31          1           0        0.783000    1.094000    0.828000
     32          1           0        1.825000    0.003000   -1.431000
     33          8           0        3.803000   -1.734000   -0.570000
     34          1           0        3.958000    0.956000   -0.578000
     35          1           0        3.918000    1.791000    1.659000
     36          1           0        3.159000    3.245000   -0.283000
     37          1           0        2.118000    2.425000   -1.471000
     38          1           0        1.549000    2.659000    0.199000
     39          1           0        4.155000   -2.594000   -0.302000
 ---------------------------------------------------------------------
                    Distance matrix (angstroms):
                    1          2          3          4          5
     1  N    0.000000
     2  C    1.468759   0.000000
     3  C    2.449359   1.530328   0.000000
     4  C    2.449125   1.530189   2.498899   0.000000
     5  C    2.951390   2.498383   3.848342   1.529348   0.000000
     6  C    4.295169   3.847921   4.996591   2.497699   1.529599
     7  C    3.668826   2.984601   4.324397   2.498252   1.530021
     8  O    3.701235   2.417312   1.429195   2.878301   4.243228
     9  O    2.845395   2.416234   1.428698   2.878211   4.311652
    10  N    2.866622   2.449229   1.469309   3.794464   4.945845
    11  C    4.218519   3.767497   2.420954   4.919738   6.224351
    12  C    5.275778   4.580206   3.336941   5.707659   6.948010
    13  O    5.221074   4.398463   3.453246   5.545663   6.619418
    14  C    4.801377   4.780460   3.611519   6.028636   7.253674
    15  O    5.003234   5.129791   4.257371   6.555037   7.585935
    16  C    4.382742   4.720543   3.734068   5.843496   7.021808
    17  H    1.008264   2.058072   2.693181   3.339874   3.832861
    18  H    1.009547   2.058544   2.662670   2.662216   3.315991
    19  H    2.100576   1.089775   2.153845   2.154164   2.685747
    20  H    2.650101   2.154774   2.768373   1.090646   2.154136
    21  H    3.389476   2.154472   2.685707   1.089688   2.153520
    22  H    2.551567   2.685459   4.135047   2.153608   1.090088
    23  H    4.913798   4.163220   5.116016   2.725954   2.154527
    24  H    4.934882   4.643106   5.919791   3.446168   2.154526
    25  H    4.363573   4.108717   5.115663   2.725840   2.154541
    26  H    3.238408   2.602306   3.928191   2.725732   2.154234
    27  H    4.399633   3.956218   5.363558   3.445746   2.154098
    28  H    4.375288   3.379701   4.460339   2.724902   2.153404
    29  H    4.004821   2.651202   2.025024   3.216392   4.357543
    30  H    2.540125   2.651004   2.025915   3.216843   4.471739
    31  H    2.487931   2.632288   2.058783   4.053865   5.054942
    32  H    4.472649   3.912236   2.403949   4.783253   6.218563
    33  O    6.546148   5.854352   4.516329   6.891930   8.194731
    34  H    5.840631   5.733749   4.442153   6.899429   8.196985
    35  H    5.634046   5.932278   5.117729   7.359266   8.348673
    36  H    5.240917   5.729524   4.813901   6.861938   7.983921
    37  H    4.544186   4.745652   3.634585   5.635989   6.923920
    38  H    3.464172   4.039968   3.362923   5.219579   6.252946
    39  H    7.246299   6.469695   5.211745   7.487321   8.735248
                    6          7          8          9         10
     6  C    0.000000
     7  C    2.498470   0.000000
     8  O    5.197810   4.457515   0.000000
     9  O    5.197827   5.177723   2.333270   0.000000
    10  N    6.252768   5.211766   2.367184   2.366619   0.000000
    11  C    7.417354   6.525026   2.821490   2.821013   1.468561
    12  C    8.154036   6.952191   3.173406   4.058928   2.429629
    13  O    7.876772   6.370124   3.135514   4.514129   2.621939
    14  C    8.491439   7.643654   4.295790   3.701569   2.448854
    15  O    8.958100   7.781011   4.998048   4.669790   2.835767
    16  C    8.173769   7.680549   4.747598   3.356059   2.909074
    17  H    5.243599   4.304063   3.998463   3.228265   2.552577
    18  H    4.421034   4.337491   3.977595   2.510583   3.203313
    19  H    4.134848   2.564761   2.665095   3.353990   2.688334
    20  H    2.684668   3.445103   3.308376   2.568566   4.109353
    21  H    2.766972   2.685572   2.479717   3.174205   4.053926
    22  H    2.153291   2.154595   4.835142   4.501807   5.047223
    23  H    1.090571   2.726462   5.013898   5.369913   6.448618
    24  H    1.090421   2.726288   6.157855   6.191572   7.088320
    25  H    1.089685   3.446623   5.446395   5.013886   6.414910
    26  H    3.446220   1.089933   4.173247   4.976985   4.549805
    27  H    2.725929   1.089592   5.546233   6.173836   6.188429
    28  H    2.725471   1.089713   4.240345   5.349015   5.443696
    29  H    5.391860   4.230610   0.967515   3.202875   2.611506
    30  H    5.392035   5.458238   3.203837   0.967722   2.612535
    31  H    6.409259   5.430965   3.249860   2.628071   1.009340
    32  H    7.243481   6.683577   2.609580   2.356721   2.101060
    33  O    9.331525   8.216496   4.202014   5.016709   3.688389
    34  H    9.377514   8.590159   4.912781   4.409187   3.391427
    35  H    9.723870   8.587559   5.929240   5.400555   3.726563
    36  H    9.135246   8.660502   5.830474   4.390876   3.923486
    37  H    7.924448   7.722359   4.542489   2.889303   3.200932
    38  H    7.458591   6.925270   4.595357   3.105790   2.594389
    39  H    9.870832   8.611270   4.733450   5.839544   4.407866
                   11         12         13         14         15
    11  C    0.000000
    12  C    1.506776   0.000000
    13  O    2.355723   1.208415   0.000000
    14  C    1.530013   2.479590   3.399285   0.000000
    15  O    2.416585   2.875926   3.418906   1.428946   0.000000
    16  C    2.499049   3.829257   4.686395   1.530136   2.416157
    17  H    3.902175   4.923826   4.864776   4.269480   4.241907
    18  H    4.350241   5.594076   5.737425   4.807357   5.213216
    19  H    4.055607   4.556158   4.092990   5.118973   5.230666
    20  H    5.087549   6.074453   6.115215   6.071183   6.758132
    21  H    5.000615   5.572023   5.352551   6.289311   6.888641
    22  H    6.400924   7.255464   6.974665   7.237409   7.471210
    23  H    7.502630   8.100922   7.792199   8.708873   9.245679
    24  H    8.327982   9.036250   8.679336   9.363658   9.727011
    25  H    7.501065   8.392042   8.266109   8.482241   9.060662
    26  H    5.911567   6.270824   5.617812   6.964546   6.952308
    27  H    7.543117   7.967543   7.338268   8.601251   8.654092
    28  H    6.620419   6.888591   6.264098   7.883072   8.109012
    29  H    3.159736   3.128454   2.729002   4.648257   5.121443
    30  H    3.160326   4.556993   5.051931   3.671161   4.561707
    31  H    2.058294   3.180029   3.414442   2.404001   2.575559
    32  H    1.090541   2.134118   3.057575   2.154221   3.354974
    33  O    2.468857   1.342322   2.210339   2.996680   3.476548
    34  H    2.155169   2.704208   3.795210   1.090027   2.065229
    35  H    3.294090   3.760800   4.330110   2.025691   0.967015
    36  H    3.444120   4.622530   5.510373   2.153983   2.710980
    37  H    2.678962   4.080043   5.026867   2.153720   3.352043
    38  H    2.775148   4.154667   4.784109   2.154480   2.620048
    39  H    3.334274   1.978293   2.392379   3.880982   4.149121
                   16         17         18         19         20
    16  C    0.000000
    17  H    3.928544   0.000000
    18  H    4.106956   1.663032   0.000000
    19  H    5.308626   2.381878   2.948286   0.000000
    20  H    5.652128   3.603785   2.431912   3.051420   0.000000
    21  H    6.300845   4.176666   3.635129   2.512535   1.779852
    22  H    6.850298   3.397813   2.882102   2.941203   2.511886
    23  H    8.525956   5.842992   5.072485   4.376849   3.004667
    24  H    9.032717   5.829905   5.128545   4.785731   3.692813
    25  H    7.993363   5.361101   4.237024   4.639317   2.455639
    26  H    7.105127   3.656043   4.084946   1.871577   3.742441
    27  H    8.588019   5.000780   5.055900   3.517978   4.276978
    28  H    8.052840   5.015406   4.998291   2.937336   3.698558
    29  H    5.297435   4.204909   4.484592   2.487145   3.887731
    30  H    2.959352   2.856722   1.953649   3.646694   2.769294
    31  H    2.470838   1.923837   2.763300   2.957658   4.264291
    32  H    2.718490   4.374759   4.419159   4.396658   4.782699
    33  O    4.415709   6.193411   6.778348   5.872634   7.183082
    34  H    2.154567   5.349576   5.790079   6.078782   6.895860
    35  H    2.650745   4.816201   5.775117   6.064334   7.501706
    36  H    1.089471   4.706917   4.922717   6.296913   6.627777
    37  H    1.090155   4.323156   4.099258   5.484849   5.289810
    38  H    1.089759   2.949288   3.216696   4.630766   5.064720
    39  H    5.342070   6.883374   7.560380   6.357486   7.868528
                   21         22         23         24         25
    21  H    0.000000
    22  H    3.050349   0.000000
    23  H    2.545540   3.052312   0.000000
    24  H    3.753171   2.479279   1.780425   0.000000
    25  H    3.129309   2.479375   1.779635   1.779732   0.000000
    26  H    3.004886   2.480164   3.723110   3.722892   4.278674
    27  H    3.692786   2.479784   3.068136   2.498951   3.722704
    28  H    2.455462   3.051922   2.498523   3.067852   3.722057
    29  H    2.737750   4.993707   5.159468   6.261529   5.815708
    30  H    3.771285   4.428787   5.740328   6.318452   5.106172
    31  H    4.546295   4.936704   6.764721   7.179968   6.499921
    32  H    4.768241   6.481771   7.254255   8.227894   7.223081
    33  O    6.673075   8.538784   9.210040  10.250113   9.529093
    34  H    7.063402   8.237711   9.527511  10.289631   9.339143
    35  H    7.758289   8.147301  10.069005  10.469384   9.780431
    36  H    7.364612   7.728892   9.537501   9.964933   8.911524
    37  H    6.025567   6.836773   8.215571   8.848765   7.645133
    38  H    5.820382   5.970418   7.911116   8.249501   7.300733
    39  H    7.184297   9.133041   9.686661  10.762990  10.146224
                   26         27         28         29         30
    26  H    0.000000
    27  H    1.779497   0.000000
    28  H    1.779727   1.779857   0.000000
    29  H    3.831650   5.293581   3.928940   0.000000
    30  H    5.223944   6.374202   5.801071   3.996624   0.000000
    31  H    4.732687   6.321055   5.844673   3.528081   2.489804
    32  H    6.229438   7.738563   6.693913   3.208973   2.855027
    33  O    7.568539   9.245498   8.077120   4.201536   5.524957
    34  H    7.935599   9.576546   8.752280   5.277752   4.452358
    35  H    7.746129   9.422381   8.975059   6.081651   5.171498
    36  H    8.057571   9.530674   9.082314   6.359131   3.904633
    37  H    7.281075   8.667349   8.019364   5.246351   2.546794
    38  H    6.335993   7.769720   7.408904   5.103077   2.530640
    39  H    7.941541   9.619921   8.398491   4.567842   6.395708
                   31         32         33         34         35
    31  H    0.000000
    32  H    2.716455   0.000000
    33  O    4.367195   2.769652   0.000000
    34  H    3.475127   2.487068   2.694474   0.000000
    35  H    3.317317   4.138320   4.172205   2.388094   0.000000
    36  H    3.392123   3.688906   5.028672   2.442324   2.541960
    37  H    2.973077   2.439986   4.576932   2.518136   3.665905
    38  H    1.852464   3.128484   4.997032   3.050774   2.914993
    39  H    5.123341   3.667145   0.967124   3.566158   4.809357
                   36         37         38         39
    36  H    0.000000
    37  H    1.779726   0.000000
    38  H    1.779837   1.779724   0.000000
    39  H    5.923369   5.541326   5.885257   0.000000
 Stoichiometry    C10H22N2O5
 Framework group  C1[X(C10H22N2O5)]
 Deg. of freedom   111
 Full point group                 C1      NOp   1
 Largest Abelian subgroup         C1      NOp   1
 Largest concise Abelian subgroup C1      NOp   1
                         Standard orientation:                         
 ---------------------------------------------------------------------
 Center     Atomic      Atomic             Coordinates (Angstroms)
 Number     Number       Type             X           Y           Z
 ---------------------------------------------------------------------
      1          7           0       -1.554722    1.538753    0.913270
      2          6           0       -1.561670    0.179588    0.356603
      3          6           0       -0.289737   -0.042345   -0.464882
      4          6           0       -2.787022    0.002532   -0.542640
      5          6           0       -4.058192    0.100084    0.302060
      6          6           0       -5.283310    0.049275   -0.612366
      7          6           0       -4.107544   -1.069624    1.287104
      8          8           0       -0.297115   -1.364703   -1.007019
      9          8           0       -0.239799    0.908459   -1.530085
     10          7           0        0.886629    0.127060    0.399024
     11          6           0        2.128561   -0.078298   -0.357352
     12          6           0        2.714062   -1.421728   -0.006985
     13          8           0        2.153279   -2.134865    0.791278
     14          6           0        3.130101    1.022707   -0.002887
     15          8           0        3.394554    0.991851    1.401035
     16          6           0        2.546053    2.385518   -0.380972
     17          1           0       -0.791307    1.660348    1.560578
     18          1           0       -1.519671    2.229966    0.178299
     19          1           0       -1.599641   -0.545705    1.169079
     20          1           0       -2.795318    0.783884   -1.303514
     21          1           0       -2.745697   -0.973430   -1.025560
     22          1           0       -4.056420    1.040305    0.853670
     23          1           0       -5.286077   -0.890914   -1.164980
     24          1           0       -6.189851    0.119094   -0.010429
     25          1           0       -5.248970    0.882058   -1.314298
     26          1           0       -3.234590   -1.032987    1.938689
     27          1           0       -5.013085   -0.999822    1.889046
     28          1           0       -4.109294   -2.008831    0.734509
     29          1           0       -0.330002   -2.062998   -0.338148
     30          1           0       -0.232232    1.830300   -1.235742
     31          1           0        0.880269    1.032953    0.844090
     32          1           0        1.913742   -0.043144   -1.425948
     33          8           0        3.857775   -1.826085   -0.581654
     34          1           0        4.058825    0.860692   -0.550045
     35          1           0        4.022914    1.663958    1.698614
     36          1           0        3.297779    3.158595   -0.225392
     37          1           0        2.248330    2.373790   -1.429619
     38          1           0        1.675803    2.593459    0.241122
     39          1           0        4.193779   -2.695774   -0.324615
 ---------------------------------------------------------------------
 Rotational constants (GHZ):      0.8763081      0.2321043      0.2109240
 Standard basis: 6-31G(d) (6D, 7F)
 There are   299 symmetry adapted basis functions of A   symmetry.
 Integral buffers will be    131072 words long.
 Raffenetti 1 integral format.
 Two-electron integral symmetry is turned on.
   299 basis functions,   564 primitive gaussians,   299 cartesian basis functions
    68 alpha electrons       68 beta electrons
       nuclear repulsion energy      1409.4911784246 Hartrees.
 NAtoms=   39 NActive=   39 NUniq=   39 SFac= 1.00D+00 NAtFMM=   60 NAOKFM=F Big=F
 One-electron integrals computed using PRISM.
 NBasis=   299 RedAO= T  NBF=   299
 NBsUse=   299 1.00D-06 NBFU=   299
 Harris functional with IExCor=  205 diagonalized for initial guess.
 ExpMin= 1.61D-01 ExpMax= 5.48D+03 ExpMxC= 8.25D+02 IAcc=1 IRadAn=         1 AccDes= 0.00D+00
 HarFok:  IExCor=  205 AccDes= 0.00D+00 IRadAn=         1 IDoV= 1
 ScaDFX=  1.000000  1.000000  1.000000  1.000000
 FoFCou: FMM=F IPFlag=           0 FMFlag=      100000 FMFlg1=           0
         NFxFlg=           0 DoJE=T BraDBF=F KetDBF=T FulRan=T
         Omega=  0.000000  0.000000  1.000000  0.000000  0.000000 ICntrl=     500 IOpCl=  0
         NMat0=    1 NMatS0=    1 NMatT0=    0 NMatD0=    1 NMtDS0=    0 NMtDT0=    0
         I1Cent=           4 NGrid=           0.
 Petite list used in FoFCou.
 Initial guess orbital symmetries:
       Occupied  (A) (A) (A) (A) (A) (A) (A) (A) (A) (A) (A) (A)
                 (A) (A) (A) (A) (A) (A) (A) (A) (A) (A) (A) (A)
                 (A) (A) (A) (A) (A) (A) (A) (A) (A) (A) (A) (A)
                 (A) (A) (A) (A) (A) (A) (A) (A) (A) (A) (A) (A)
                 (A) (A) (A) (A) (A) (A) (A) (A) (A) (A) (A) (A)
                 (A) (A) (A) (A) (A) (A) (A) (A)
       Virtual   (A) (A) (A) (A) (A) (A) (A) (A) (A) (A) (A) (A)
                 (A) (A) (A) (A) (A) (A) (A) (A) (A) (A) (A) (A)
                 (A) (A) (A) (A) (A) (A) (A) (A) (A) (A) (A) (A)
                 (A) (A) (A) (A) (A) (A) (A) (A) (A) (A) (A) (A)
                 (A) (A) (A) (A) (A) (A) (A) (A) (A) (A) (A) (A)
                 (A) (A) (A) (A) (A) (A) (A) (A) (A) (A) (A) (A)
                 (A) (A) (A) (A) (A) (A) (A) (A) (A) (A) (A) (A)
                 (A) (A) (A) (A) (A) (A) (A) (A) (A) (A) (A) (A)
                 (A) (A) (A) (A) (A) (A) (A) (A) (A) (A) (A) (A)
                 (A) (A) (A) (A) (A) (A) (A) (A) (A) (A) (A) (A)
                 (A) (A) (A) (A) (A) (A) (A) (A) (A) (A) (A) (A)
                 (A) (A) (A) (A) (A) (A) (A) (A) (A) (A) (A) (A)
                 (A) (A) (A) (A) (A) (A) (A) (A) (A) (A) (A) (A)
                 (A) (A) (A) (A) (A) (A) (A) (A) (A) (A) (A) (A)
                 (A) (A) (A) (A) (A) (A) (A) (A) (A) (A) (A) (A)
                 (A) (A) (A) (A) (A) (A) (A) (A) (A) (A) (A) (A)
                 (A) (A) (A) (A) (A) (A) (A) (A) (A) (A) (A) (A)
                 (A) (A) (A) (A) (A) (A) (A) (A) (A) (A) (A) (A)
                 (A) (A) (A) (A) (A) (A) (A) (A) (A) (A) (A) (A)
                 (A) (A) (A)
 The electronic state of the initial guess is 1-A.
 Requested convergence on RMS density matrix=1.00D-08 within 128 cycles.
 Requested convergence on MAX density matrix=1.00D-06.
 Requested convergence on             energy=1.00D-06.
 No special actions if energy rises.
 Integral accuracy reduced to 1.0D-05 until final iterations.
 Initial convergence to 1.0D-05 achieved.  Increase integral accuracy.
 SCF Done:  E(RHF) =  -874.648995248     A.U. after   14 cycles
             Convg  =    0.6007D-08             -V/T =  2.0021

 **********************************************************************

            Population analysis using the SCF density.

 **********************************************************************

 Orbital symmetries:
 BldTbl:  Degeneracy threshold= 1.00D-02
       Occupied  (A) (A) (A) (A) (A) (A) (A) (A) (A) (A) (A) (A)
                 (A) (A) (A) (A) (A) (A) (A) (A) (A) (A) (A) (A)
                 (A) (A) (A) (A) (A) (A) (A) (A) (A) (A) (A) (A)
                 (A) (A) (A) (A) (A) (A) (A) (A) (A) (A) (A) (A)
                 (A) (A) (A) (A) (A) (A) (A) (A) (A) (A) (A) (A)
                 (A) (A) (A) (A) (A) (A) (A) (A)
       Virtual   (A) (A) (A) (A) (A) (A) (A) (A) (A) (A) (A) (A)
                 (A) (A) (A) (A) (A) (A) (A) (A) (A) (A) (A) (A)
                 (A) (A) (A) (A) (A) (A) (A) (A) (A) (A) (A) (A)
                 (A) (A) (A) (A) (A) (A) (A) (A) (A) (A) (A) (A)
                 (A) (A) (A) (A) (A) (A) (A) (A) (A) (A) (A) (A)
                 (A) (A) (A) (A) (A) (A) (A) (A) (A) (A) (A) (A)
                 (A) (A) (A) (A) (A) (A) (A) (A) (A) (A) (A) (A)
                 (A) (A) (A) (A) (A) (A) (A) (A) (A) (A) (A) (A)
                 (A) (A) (A) (A) (A) (A) (A) (A) (A) (A) (A) (A)
                 (A) (A) (A) (A) (A) (A) (A) (A) (A) (A) (A) (A)
                 (A) (A) (A) (A) (A) (A) (A) (A) (A) (A) (A) (A)
                 (A) (A) (A) (A) (A) (A) (A) (A) (A) (A) (A) (A)
                 (A) (A) (A) (A) (A) (A) (A) (A) (A) (A) (A) (A)
                 (A) (A) (A) (A) (A) (A) (A) (A) (A) (A) (A) (A)
                 (A) (A) (A) (A) (A) (A) (A) (A) (A) (A) (A) (A)
                 (A) (A) (A) (A) (A) (A) (A) (A) (A) (A) (A) (A)
                 (A) (A) (A) (A) (A) (A) (A) (A) (A) (A) (A) (A)
                 (A) (A) (A) (A) (A) (A) (A) (A) (A) (A) (A) (A)
                 (A) (A) (A) (A) (A) (A) (A) (A) (A) (A) (A) (A)
                 (A) (A) (A)
 The electronic state is 1-A.
 Alpha  occ. eigenvalues --  -20.60828 -20.57639 -20.57375 -20.56899 -20.53169
 Alpha  occ. eigenvalues --  -15.55539 -15.55351 -11.37396 -11.37225 -11.30406
 Alpha  occ. eigenvalues --  -11.27812 -11.25321 -11.24024 -11.20814 -11.20549
 Alpha  occ. eigenvalues --  -11.20081 -11.20038  -1.45147  -1.41117  -1.37001
 Alpha  occ. eigenvalues --   -1.34029  -1.33510  -1.21342  -1.19031  -1.08036
 Alpha  occ. eigenvalues --   -1.05653  -0.99076  -0.97398  -0.92033  -0.89075
 Alpha  occ. eigenvalues --   -0.85579  -0.82235  -0.80611  -0.75784  -0.73281
 Alpha  occ. eigenvalues --   -0.71337  -0.70033  -0.68766  -0.68156  -0.67427
 Alpha  occ. eigenvalues --   -0.67263  -0.63694  -0.62162  -0.61542  -0.60944
 Alpha  occ. eigenvalues --   -0.60346  -0.59183  -0.58307  -0.57769  -0.56305
 Alpha  occ. eigenvalues --   -0.55315  -0.54183  -0.53602  -0.52903  -0.52377
 Alpha  occ. eigenvalues --   -0.51378  -0.50344  -0.49458  -0.49155  -0.47602
 Alpha  occ. eigenvalues --   -0.45951  -0.45624  -0.45193  -0.44348  -0.43811
 Alpha  occ. eigenvalues --   -0.42460  -0.39603  -0.37876
 Alpha virt. eigenvalues --    0.17248   0.19373   0.21071   0.22042   0.23147
 Alpha virt. eigenvalues --    0.23539   0.24772   0.27062   0.27883   0.28726
 Alpha virt. eigenvalues --    0.28824   0.29246   0.30878   0.32060   0.32306
 Alpha virt. eigenvalues --    0.34047   0.34375   0.34720   0.35327   0.35829
 Alpha virt. eigenvalues --    0.36440   0.38165   0.38483   0.39297   0.41009
 Alpha virt. eigenvalues --    0.41644   0.41813   0.42527   0.43292   0.44363
 Alpha virt. eigenvalues --    0.45477   0.47066   0.47866   0.49081   0.52244
 Alpha virt. eigenvalues --    0.52902   0.53817   0.56468   0.62900   0.71621
 Alpha virt. eigenvalues --    0.73526   0.73722   0.74346   0.75847   0.76511
 Alpha virt. eigenvalues --    0.76945   0.78576   0.79206   0.80659   0.83986
 Alpha virt. eigenvalues --    0.85632   0.86159   0.86852   0.87666   0.89207
 Alpha virt. eigenvalues --    0.91093   0.92129   0.94308   0.95325   0.95417
 Alpha virt. eigenvalues --    0.96458   0.97917   0.98375   0.99776   1.00482
 Alpha virt. eigenvalues --    1.01929   1.02721   1.03919   1.05744   1.06706
 Alpha virt. eigenvalues --    1.07798   1.08850   1.10603   1.11570   1.12356
 Alpha virt. eigenvalues --    1.13385   1.14123   1.14755   1.15708   1.16041
 Alpha virt. eigenvalues --    1.16396   1.17518   1.18231   1.18645   1.19425
 Alpha virt. eigenvalues --    1.20174   1.20597   1.21218   1.22313   1.22940
 Alpha virt. eigenvalues --    1.23210   1.23938   1.24458   1.25482   1.25786
 Alpha virt. eigenvalues --    1.26319   1.27869   1.29150   1.30277   1.31024
 Alpha virt. eigenvalues --    1.32545   1.33575   1.34607   1.35945   1.37709
 Alpha virt. eigenvalues --    1.38324   1.40539   1.43245   1.45018   1.46394
 Alpha virt. eigenvalues --    1.49643   1.50267   1.53603   1.55599   1.58239
 Alpha virt. eigenvalues --    1.60784   1.61738   1.65067   1.67247   1.68927
 Alpha virt. eigenvalues --    1.69428   1.72514   1.73549   1.74880   1.77011
 Alpha virt. eigenvalues --    1.79219   1.82767   1.85534   1.86840   1.88616
 Alpha virt. eigenvalues --    1.90880   1.92322   1.93806   1.97084   1.97898
 Alpha virt. eigenvalues --    1.98409   2.00169   2.02288   2.03923   2.07379
 Alpha virt. eigenvalues --    2.08372   2.09893   2.10645   2.11175   2.11771
 Alpha virt. eigenvalues --    2.12746   2.15948   2.17242   2.17519   2.18914
 Alpha virt. eigenvalues --    2.20096   2.21450   2.24708   2.25649   2.26839
 Alpha virt. eigenvalues --    2.28314   2.30693   2.32450   2.33544   2.34043
 Alpha virt. eigenvalues --    2.34390   2.36805   2.38502   2.39684   2.42254
 Alpha virt. eigenvalues --    2.42633   2.44321   2.45445   2.47004   2.49136
 Alpha virt. eigenvalues --    2.50571   2.51323   2.52020   2.54290   2.58043
 Alpha virt. eigenvalues --    2.58950   2.59484   2.60863   2.62244   2.64714
 Alpha virt. eigenvalues --    2.66300   2.69090   2.71529   2.74551   2.76382
 Alpha virt. eigenvalues --    2.76569   2.78099   2.79121   2.81121   2.84998
 Alpha virt. eigenvalues --    2.86133   2.87743   2.88158   2.89488   2.91275
 Alpha virt. eigenvalues --    2.94193   2.98812   3.00253   3.02954   3.03999
 Alpha virt. eigenvalues --    3.05093   3.07908   3.10597   3.12339   3.15751
 Alpha virt. eigenvalues --    3.20193   3.22468   3.28394   3.30290   3.33694
 Alpha virt. eigenvalues --    3.36997   3.40954   3.42111   3.51894   4.17558
 Alpha virt. eigenvalues --    4.20689   4.30634   4.33187   4.43454   4.51857
 Alpha virt. eigenvalues --    4.62972   4.66420   4.69281   4.73965   4.82242
 Alpha virt. eigenvalues --    4.86846   4.89934   4.99193   5.02831   5.13983
 Alpha virt. eigenvalues --    5.18299
          Condensed to atoms (all electrons):
              1          2          3          4          5          6
     1  N    7.101591   0.260849  -0.070988  -0.064929  -0.009553   0.000025
     2  C    0.260849   5.046350   0.427036   0.341414  -0.055540   0.005275
     3  C   -0.070988   0.427036   4.243034  -0.064416   0.005245  -0.000083
     4  C   -0.064929   0.341414  -0.064416   5.182227   0.346555  -0.071404
     5  C   -0.009553  -0.055540   0.005245   0.346555   5.080604   0.358515
     6  C    0.000025   0.005275  -0.000083  -0.071404   0.358515   5.123698
     7  C    0.001153  -0.006634  -0.000056  -0.073709   0.347081  -0.071439
     8  O    0.003116  -0.053250   0.231784  -0.006385   0.000127   0.000003
     9  O   -0.007834  -0.059712   0.207182  -0.004471   0.000146   0.000000
    10  N   -0.009518  -0.082421   0.334878   0.004058  -0.000056   0.000000
    11  C    0.000611   0.005651  -0.034536  -0.000109   0.000002   0.000000
    12  C   -0.000022  -0.000078  -0.001104  -0.000003   0.000000   0.000000
    13  O    0.000001  -0.000178   0.000319   0.000001   0.000000   0.000000
    14  C   -0.000051  -0.000105   0.001515   0.000001   0.000000   0.000000
    15  O    0.000000   0.000002   0.000223   0.000000   0.000000   0.000000
    16  C   -0.000374   0.000056  -0.000204   0.000000   0.000000   0.000000
    17  H    0.336370  -0.038808  -0.002288   0.005345  -0.000038   0.000009
    18  H    0.325898  -0.040514  -0.001505  -0.003819   0.000254  -0.000073
    19  H   -0.033018   0.393836  -0.041761  -0.032912  -0.006684  -0.000072
    20  H   -0.002218  -0.033744  -0.007023   0.395386  -0.041071  -0.004762
    21  H    0.003240  -0.037077  -0.005807   0.397936  -0.038266  -0.002953
    22  H    0.005256  -0.006625  -0.000020  -0.038561   0.409943  -0.040929
    23  H   -0.000010  -0.000067  -0.000008  -0.004388  -0.038795   0.387833
    24  H    0.000004  -0.000137   0.000002   0.005540  -0.040414   0.392773
    25  H    0.000023  -0.000111  -0.000001  -0.004161  -0.039977   0.392142
    26  H    0.001261  -0.003920   0.000341  -0.005463  -0.039462   0.005139
    27  H   -0.000057   0.000182   0.000004   0.005287  -0.037982  -0.004052
    28  H    0.000014  -0.000071  -0.000094  -0.003688  -0.041423  -0.004340
    29  H    0.000079  -0.002237  -0.013177   0.000355  -0.000057   0.000001
    30  H    0.008414  -0.006030  -0.012582   0.000676  -0.000041   0.000000
    31  H    0.012418  -0.008807  -0.026827   0.000094  -0.000004   0.000000
    32  H   -0.000038   0.000483  -0.002271   0.000009   0.000000   0.000000
    33  O    0.000000   0.000000   0.000054   0.000000   0.000000   0.000000
    34  H   -0.000001   0.000003  -0.000032   0.000000   0.000000   0.000000
    35  H    0.000000   0.000000  -0.000001   0.000000   0.000000   0.000000
    36  H   -0.000002   0.000000   0.000008   0.000000   0.000000   0.000000
    37  H   -0.000019   0.000041  -0.000059   0.000000   0.000000   0.000000
    38  H    0.000495  -0.000061   0.000124  -0.000001   0.000000   0.000000
    39  H    0.000000   0.000000  -0.000002   0.000000   0.000000   0.000000
              7          8          9         10         11         12
     1  N    0.001153   0.003116  -0.007834  -0.009518   0.000611  -0.000022
     2  C   -0.006634  -0.053250  -0.059712  -0.082421   0.005651  -0.000078
     3  C   -0.000056   0.231784   0.207182   0.334878  -0.034536  -0.001104
     4  C   -0.073709  -0.006385  -0.004471   0.004058  -0.000109  -0.000003
     5  C    0.347081   0.000127   0.000146  -0.000056   0.000002   0.000000
     6  C   -0.071439   0.000003   0.000000   0.000000   0.000000   0.000000
     7  C    5.152697  -0.000005  -0.000007   0.000000   0.000000   0.000000
     8  O   -0.000005   8.438431  -0.032530  -0.063737  -0.001230   0.003019
     9  O   -0.000007  -0.032530   8.504655  -0.096378  -0.004536  -0.000217
    10  N    0.000000  -0.063737  -0.096378   7.222415   0.241815  -0.064751
    11  C    0.000000  -0.001230  -0.004536   0.241815   5.175639   0.336297
    12  C    0.000000   0.003019  -0.000217  -0.064751   0.336297   4.100057
    13  O    0.000000  -0.001402  -0.000003  -0.007237  -0.082512   0.606286
    14  C    0.000000   0.000347  -0.001536  -0.041227   0.346687  -0.051545
    15  O    0.000000  -0.000002  -0.000001   0.001082  -0.065592   0.007553
    16  C    0.000000  -0.000019   0.000666  -0.012000  -0.070893   0.004744
    17  H   -0.000053  -0.000032   0.000305   0.001655   0.000169  -0.000016
    18  H   -0.000009   0.000039   0.005521   0.000069  -0.000067   0.000000
    19  H   -0.000920   0.003019   0.003315   0.001131  -0.000249  -0.000019
    20  H    0.004928   0.000375   0.005614   0.000071  -0.000004   0.000000
    21  H   -0.004312   0.007000   0.000099   0.000183  -0.000009   0.000000
    22  H   -0.039113  -0.000010   0.000001  -0.000003   0.000000   0.000000
    23  H   -0.004579  -0.000003   0.000000   0.000000   0.000000   0.000000
    24  H   -0.003748   0.000000   0.000000   0.000000   0.000000   0.000000
    25  H    0.005428   0.000000  -0.000002   0.000000   0.000000   0.000000
    26  H    0.394659  -0.000032  -0.000005  -0.000018   0.000000   0.000000
    27  H    0.393222   0.000000   0.000000   0.000000   0.000000   0.000000
    28  H    0.387424  -0.000001   0.000001   0.000000   0.000000   0.000000
    29  H    0.000029   0.255193   0.002296   0.000461  -0.000657   0.000310
    30  H    0.000000   0.002731   0.248415   0.000700   0.000110  -0.000006
    31  H    0.000000   0.003366   0.002252   0.318809  -0.042524   0.003360
    32  H    0.000000   0.000790   0.009605  -0.041022   0.395400  -0.035965
    33  O    0.000000  -0.000033   0.000000   0.001065  -0.077881   0.277185
    34  H    0.000000   0.000000  -0.000029   0.004057  -0.047237  -0.004831
    35  H    0.000000   0.000000   0.000000  -0.000209   0.006139  -0.000307
    36  H    0.000000   0.000000   0.000065   0.000278   0.005248  -0.000031
    37  H    0.000000  -0.000008   0.002005   0.000176  -0.001904  -0.000148
    38  H    0.000000  -0.000003  -0.000589   0.001323  -0.007484  -0.000191
    39  H    0.000000  -0.000001   0.000000  -0.000117   0.005317  -0.005970
             13         14         15         16         17         18
     1  N    0.000001  -0.000051   0.000000  -0.000374   0.336370   0.325898
     2  C   -0.000178  -0.000105   0.000002   0.000056  -0.038808  -0.040514
     3  C    0.000319   0.001515   0.000223  -0.000204  -0.002288  -0.001505
     4  C    0.000001   0.000001   0.000000   0.000000   0.005345  -0.003819
     5  C    0.000000   0.000000   0.000000   0.000000  -0.000038   0.000254
     6  C    0.000000   0.000000   0.000000   0.000000   0.000009  -0.000073
     7  C    0.000000   0.000000   0.000000   0.000000  -0.000053  -0.000009
     8  O   -0.001402   0.000347  -0.000002  -0.000019  -0.000032   0.000039
     9  O   -0.000003  -0.001536  -0.000001   0.000666   0.000305   0.005521
    10  N   -0.007237  -0.041227   0.001082  -0.012000   0.001655   0.000069
    11  C   -0.082512   0.346687  -0.065592  -0.070893   0.000169  -0.000067
    12  C    0.606286  -0.051545   0.007553   0.004744  -0.000016   0.000000
    13  O    8.133891  -0.000634  -0.000061  -0.000115  -0.000001   0.000000
    14  C   -0.000634   4.807396   0.201240   0.357443  -0.000011   0.000018
    15  O   -0.000061   0.201240   8.438034  -0.057562  -0.000032   0.000000
    16  C   -0.000115   0.357443  -0.057562   5.186609  -0.000058  -0.000089
    17  H   -0.000001  -0.000011  -0.000032  -0.000058   0.368086  -0.024867
    18  H    0.000000   0.000018   0.000000  -0.000089  -0.024867   0.399280
    19  H    0.000043   0.000006   0.000000  -0.000005  -0.002857   0.004831
    20  H    0.000000   0.000000   0.000000   0.000000  -0.000117   0.003669
    21  H    0.000000   0.000000   0.000000   0.000000  -0.000101  -0.000052
    22  H    0.000000   0.000000   0.000000   0.000000   0.000032   0.000006
    23  H    0.000000   0.000000   0.000000   0.000000   0.000000   0.000001
    24  H    0.000000   0.000000   0.000000   0.000000   0.000000   0.000001
    25  H    0.000000   0.000000   0.000000   0.000000   0.000000   0.000004
    26  H    0.000000   0.000000   0.000000   0.000000   0.000016  -0.000065
    27  H    0.000000   0.000000   0.000000   0.000000   0.000000   0.000002
    28  H    0.000000   0.000000   0.000000   0.000000   0.000000   0.000001
    29  H    0.004723   0.000001   0.000000   0.000000   0.000002   0.000003
    30  H    0.000001  -0.000196   0.000001   0.000655   0.000023   0.006790
    31  H    0.000272  -0.005553   0.005026  -0.002599   0.005051   0.000192
    32  H    0.000564  -0.027390   0.001866  -0.005074   0.000013  -0.000005
    33  O   -0.094087   0.005946  -0.000358  -0.000034   0.000000   0.000000
    34  H    0.000081   0.410083  -0.034004  -0.046951  -0.000001   0.000000
    35  H    0.000010  -0.020807   0.259546  -0.002174   0.000001   0.000000
    36  H    0.000000  -0.036772  -0.000239   0.390511  -0.000001  -0.000002
    37  H    0.000001  -0.035443   0.003501   0.376267   0.000002  -0.000036
    38  H    0.000003  -0.034675  -0.000320   0.381336  -0.000017   0.000285
    39  H    0.006411  -0.000249  -0.000018   0.000008   0.000000   0.000000
             19         20         21         22         23         24
     1  N   -0.033018  -0.002218   0.003240   0.005256  -0.000010   0.000004
     2  C    0.393836  -0.033744  -0.037077  -0.006625  -0.000067  -0.000137
     3  C   -0.041761  -0.007023  -0.005807  -0.000020  -0.000008   0.000002
     4  C   -0.032912   0.395386   0.397936  -0.038561  -0.004388   0.005540
     5  C   -0.006684  -0.041071  -0.038266   0.409943  -0.038795  -0.040414
     6  C   -0.000072  -0.004762  -0.002953  -0.040929   0.387833   0.392773
     7  C   -0.000920   0.004928  -0.004312  -0.039113  -0.004579  -0.003748
     8  O    0.003019   0.000375   0.007000  -0.000010  -0.000003   0.000000
     9  O    0.003315   0.005614   0.000099   0.000001   0.000000   0.000000
    10  N    0.001131   0.000071   0.000183  -0.000003   0.000000   0.000000
    11  C   -0.000249  -0.000004  -0.000009   0.000000   0.000000   0.000000
    12  C   -0.000019   0.000000   0.000000   0.000000   0.000000   0.000000
    13  O    0.000043   0.000000   0.000000   0.000000   0.000000   0.000000
    14  C    0.000006   0.000000   0.000000   0.000000   0.000000   0.000000
    15  O    0.000000   0.000000   0.000000   0.000000   0.000000   0.000000
    16  C   -0.000005   0.000000   0.000000   0.000000   0.000000   0.000000
    17  H   -0.002857  -0.000117  -0.000101   0.000032   0.000000   0.000000
    18  H    0.004831   0.003669  -0.000052   0.000006   0.000001   0.000001
    19  H    0.512470   0.003552   0.000140   0.000358   0.000015  -0.000001
    20  H    0.003552   0.526633  -0.018398  -0.000817   0.000169  -0.000021
    21  H    0.000140  -0.018398   0.501420   0.003678   0.002492  -0.000071
    22  H    0.000358  -0.000817   0.003678   0.519143   0.004235  -0.002453
    23  H    0.000015   0.000169   0.002492   0.004235   0.551720  -0.026727
    24  H   -0.000001  -0.000021  -0.000071  -0.002453  -0.026727   0.542546
    25  H   -0.000003   0.002815   0.000128  -0.002214  -0.026571  -0.025037
    26  H   -0.004040  -0.000169   0.000313  -0.002026  -0.000081  -0.000071
    27  H    0.000085  -0.000096  -0.000062  -0.002427   0.000096   0.002637
    28  H    0.000391  -0.000030   0.003549   0.004280   0.003473   0.000052
    29  H    0.001997   0.000013   0.000062   0.000001   0.000000   0.000000
    30  H    0.000114  -0.000149   0.000004  -0.000004   0.000000   0.000000
    31  H    0.000854  -0.000003  -0.000014   0.000000   0.000000   0.000000
    32  H   -0.000007  -0.000004  -0.000003   0.000000   0.000000   0.000000
    33  O    0.000000   0.000000   0.000000   0.000000   0.000000   0.000000
    34  H    0.000000   0.000000   0.000000   0.000000   0.000000   0.000000
    35  H    0.000000   0.000000   0.000000   0.000000   0.000000   0.000000
    36  H    0.000000   0.000000   0.000000   0.000000   0.000000   0.000000
    37  H   -0.000001   0.000000   0.000000   0.000000   0.000000   0.000000
    38  H    0.000005   0.000000   0.000000   0.000000   0.000000   0.000000
    39  H    0.000000   0.000000   0.000000   0.000000   0.000000   0.000000
             25         26         27         28         29         30
     1  N    0.000023   0.001261  -0.000057   0.000014   0.000079   0.008414
     2  C   -0.000111  -0.003920   0.000182  -0.000071  -0.002237  -0.006030
     3  C   -0.000001   0.000341   0.000004  -0.000094  -0.013177  -0.012582
     4  C   -0.004161  -0.005463   0.005287  -0.003688   0.000355   0.000676
     5  C   -0.039977  -0.039462  -0.037982  -0.041423  -0.000057  -0.000041
     6  C    0.392142   0.005139  -0.004052  -0.004340   0.000001   0.000000
     7  C    0.005428   0.394659   0.393222   0.387424   0.000029   0.000000
     8  O    0.000000  -0.000032   0.000000  -0.000001   0.255193   0.002731
     9  O   -0.000002  -0.000005   0.000000   0.000001   0.002296   0.248415
    10  N    0.000000  -0.000018   0.000000   0.000000   0.000461   0.000700
    11  C    0.000000   0.000000   0.000000   0.000000  -0.000657   0.000110
    12  C    0.000000   0.000000   0.000000   0.000000   0.000310  -0.000006
    13  O    0.000000   0.000000   0.000000   0.000000   0.004723   0.000001
    14  C    0.000000   0.000000   0.000000   0.000000   0.000001  -0.000196
    15  O    0.000000   0.000000   0.000000   0.000000   0.000000   0.000001
    16  C    0.000000   0.000000   0.000000   0.000000   0.000000   0.000655
    17  H    0.000000   0.000016   0.000000   0.000000   0.000002   0.000023
    18  H    0.000004  -0.000065   0.000002   0.000001   0.000003   0.006790
    19  H   -0.000003  -0.004040   0.000085   0.000391   0.001997   0.000114
    20  H    0.002815  -0.000169  -0.000096  -0.000030   0.000013  -0.000149
    21  H    0.000128   0.000313  -0.000062   0.003549   0.000062   0.000004
    22  H   -0.002214  -0.002026  -0.002427   0.004280   0.000001  -0.000004
    23  H   -0.026571  -0.000081   0.000096   0.003473   0.000000   0.000000
    24  H   -0.025037  -0.000071   0.002637   0.000052   0.000000   0.000000
    25  H    0.544465  -0.000130  -0.000077  -0.000069   0.000000   0.000000
    26  H   -0.000130   0.544032  -0.024139  -0.027918  -0.000024   0.000000
    27  H   -0.000077  -0.024139   0.532679  -0.025464   0.000000   0.000000
    28  H   -0.000069  -0.027918  -0.025464   0.554012   0.000032   0.000000
    29  H    0.000000  -0.000024   0.000000   0.000032   0.275256  -0.000089
    30  H    0.000000   0.000000   0.000000   0.000000  -0.000089   0.304197
    31  H    0.000000  -0.000004   0.000000   0.000000   0.000019   0.001383
    32  H    0.000000   0.000000   0.000000   0.000000  -0.000148  -0.000591
    33  O    0.000000   0.000000   0.000000   0.000000   0.000011   0.000000
    34  H    0.000000   0.000000   0.000000   0.000000   0.000000   0.000006
    35  H    0.000000   0.000000   0.000000   0.000000   0.000000   0.000000
    36  H    0.000000   0.000000   0.000000   0.000000   0.000000   0.000023
    37  H    0.000000   0.000000   0.000000   0.000000   0.000000  -0.000107
    38  H    0.000000   0.000000   0.000000   0.000000   0.000000   0.001116
    39  H    0.000000   0.000000   0.000000   0.000000  -0.000002   0.000000
             31         32         33         34         35         36
     1  N    0.012418  -0.000038   0.000000  -0.000001   0.000000  -0.000002
     2  C   -0.008807   0.000483   0.000000   0.000003   0.000000   0.000000
     3  C   -0.026827  -0.002271   0.000054  -0.000032  -0.000001   0.000008
     4  C    0.000094   0.000009   0.000000   0.000000   0.000000   0.000000
     5  C   -0.000004   0.000000   0.000000   0.000000   0.000000   0.000000
     6  C    0.000000   0.000000   0.000000   0.000000   0.000000   0.000000
     7  C    0.000000   0.000000   0.000000   0.000000   0.000000   0.000000
     8  O    0.003366   0.000790  -0.000033   0.000000   0.000000   0.000000
     9  O    0.002252   0.009605   0.000000  -0.000029   0.000000   0.000065
    10  N    0.318809  -0.041022   0.001065   0.004057  -0.000209   0.000278
    11  C   -0.042524   0.395400  -0.077881  -0.047237   0.006139   0.005248
    12  C    0.003360  -0.035965   0.277185  -0.004831  -0.000307  -0.000031
    13  O    0.000272   0.000564  -0.094087   0.000081   0.000010   0.000000
    14  C   -0.005553  -0.027390   0.005946   0.410083  -0.020807  -0.036772
    15  O    0.005026   0.001866  -0.000358  -0.034004   0.259546  -0.000239
    16  C   -0.002599  -0.005074  -0.000034  -0.046951  -0.002174   0.390511
    17  H    0.005051   0.000013   0.000000  -0.000001   0.000001  -0.000001
    18  H    0.000192  -0.000005   0.000000   0.000000   0.000000  -0.000002
    19  H    0.000854  -0.000007   0.000000   0.000000   0.000000   0.000000
    20  H   -0.000003  -0.000004   0.000000   0.000000   0.000000   0.000000
    21  H   -0.000014  -0.000003   0.000000   0.000000   0.000000   0.000000
    22  H    0.000000   0.000000   0.000000   0.000000   0.000000   0.000000
    23  H    0.000000   0.000000   0.000000   0.000000   0.000000   0.000000
    24  H    0.000000   0.000000   0.000000   0.000000   0.000000   0.000000
    25  H    0.000000   0.000000   0.000000   0.000000   0.000000   0.000000
    26  H   -0.000004   0.000000   0.000000   0.000000   0.000000   0.000000
    27  H    0.000000   0.000000   0.000000   0.000000   0.000000   0.000000
    28  H    0.000000   0.000000   0.000000   0.000000   0.000000   0.000000
    29  H    0.000019  -0.000148   0.000011   0.000000   0.000000   0.000000
    30  H    0.001383  -0.000591   0.000000   0.000006   0.000000   0.000023
    31  H    0.370783   0.002047  -0.000026   0.000492  -0.000287   0.000001
    32  H    0.002047   0.444144   0.003170   0.000221  -0.000068  -0.000017
    33  O   -0.000026   0.003170   8.380284   0.002881  -0.000005   0.000000
    34  H    0.000492   0.000221   0.002881   0.526553  -0.002913  -0.004049
    35  H   -0.000287  -0.000068  -0.000005  -0.002913   0.312125   0.002157
    36  H    0.000001  -0.000017   0.000000  -0.004049   0.002157   0.518970
    37  H   -0.000120   0.000969   0.000002   0.001196  -0.000009  -0.020741
    38  H    0.005970   0.000170  -0.000001   0.004101  -0.000227  -0.025543
    39  H    0.000003  -0.000208   0.247972  -0.000066  -0.000001   0.000000
             37         38         39
     1  N   -0.000019   0.000495   0.000000
     2  C    0.000041  -0.000061   0.000000
     3  C   -0.000059   0.000124  -0.000002
     4  C    0.000000  -0.000001   0.000000
     5  C    0.000000   0.000000   0.000000
     6  C    0.000000   0.000000   0.000000
     7  C    0.000000   0.000000   0.000000
     8  O   -0.000008  -0.000003  -0.000001
     9  O    0.002005  -0.000589   0.000000
    10  N    0.000176   0.001323  -0.000117
    11  C   -0.001904  -0.007484   0.005317
    12  C   -0.000148  -0.000191  -0.005970
    13  O    0.000001   0.000003   0.006411
    14  C   -0.035443  -0.034675  -0.000249
    15  O    0.003501  -0.000320  -0.000018
    16  C    0.376267   0.381336   0.000008
    17  H    0.000002  -0.000017   0.000000
    18  H   -0.000036   0.000285   0.000000
    19  H   -0.000001   0.000005   0.000000
    20  H    0.000000   0.000000   0.000000
    21  H    0.000000   0.000000   0.000000
    22  H    0.000000   0.000000   0.000000
    23  H    0.000000   0.000000   0.000000
    24  H    0.000000   0.000000   0.000000
    25  H    0.000000   0.000000   0.000000
    26  H    0.000000   0.000000   0.000000
    27  H    0.000000   0.000000   0.000000
    28  H    0.000000   0.000000   0.000000
    29  H    0.000000   0.000000  -0.000002
    30  H   -0.000107   0.001116   0.000000
    31  H   -0.000120   0.005970   0.000003
    32  H    0.000969   0.000170  -0.000208
    33  O    0.000002  -0.000001   0.247972
    34  H    0.001196   0.004101  -0.000066
    35  H   -0.000009  -0.000227  -0.000001
    36  H   -0.020741  -0.025543   0.000000
    37  H    0.519632  -0.026053   0.000000
    38  H   -0.026053   0.560138   0.000000
    39  H    0.000000   0.000000   0.268247
 Mulliken atomic charges:
              1
     1  N   -0.862187
     2  C   -0.045050
     3  C    0.833095
     4  C   -0.306462
     5  C   -0.159107
     6  C   -0.465304
     7  C   -0.482037
     8  O   -0.790659
     9  O   -0.784294
    10  N   -0.715532
    11  C   -0.081661
    12  C    0.826388
    13  O   -0.566377
    14  C    0.125506
    15  O   -0.759884
    16  C   -0.500144
    17  H    0.352220
    18  H    0.324241
    19  H    0.196387
    20  H    0.165400
    21  H    0.186882
    22  H    0.188268
    23  H    0.151194
    24  H    0.155127
    25  H    0.153350
    26  H    0.161805
    27  H    0.160162
    28  H    0.149869
    29  H    0.475548
    30  H    0.444431
    31  H    0.354380
    32  H    0.253359
    33  O   -0.746147
    34  H    0.190441
    35  H    0.447028
    36  H    0.170132
    37  H    0.180858
    38  H    0.140099
    39  H    0.478676
 Sum of Mulliken atomic charges =   0.00000
 Mulliken charges with hydrogens summed into heavy atoms:
              1
     1  N   -0.185726
     2  C    0.151337
     3  C    0.833095
     4  C    0.045820
     5  C    0.029161
     6  C   -0.005633
     7  C   -0.010201
     8  O   -0.315111
     9  O   -0.339863
    10  N   -0.361152
    11  C    0.171698
    12  C    0.826388
    13  O   -0.566377
    14  C    0.315946
    15  O   -0.312856
    16  C   -0.009055
    33  O   -0.267471
 Sum of Mulliken charges with hydrogens summed into heavy atoms =   0.00000
 DipInt: DoE/N= T F RetVal/Mat= T F Init=T NMatP=  1 IDeriv=0 Min/MaxMlt=  0  4
 Entering OneElI...
 OneElI was handed    33323122 working-precision words.
 Multipole integrals L=0 to 4 MinM= 0 MaxM= 0.
 Requested accuracy = 0.1000D-12
 PrsmSu:  NPrtUS=   1 ThrOK=F IAlg=1 NPAlg=1 LenDen=           0.
 Prism:   IPart=     0 DynPar=F LinDyn=F Incr=          51.
 PRISM was handed    32905084 working-precision words and  5178 shell-pairs
 IPart=  0 NShTot=        5178 NBatch=          57 AvBLen=        90.8
 PrSmSu:  NxtVal=             52.
 Electronic moments (au):
       -136.00000000          1.14297480          1.41527298         -0.12618081
      -4096.06388875       -886.57332593       -454.64522502          4.78304227
         -1.19139718          1.49880448       8124.96152193        -65.43143563
        -82.51960506      -2188.58923510       1181.46441161       -860.49114297
        287.27264946        -95.48056694        -69.40369646       -436.84044355
    -245550.10339131     -13986.79485140      -3740.72972782      -2548.63089299
      -1282.85884584        149.84862894        591.22308794         18.69619545
        257.06110549     -24362.49522494     -13664.72007558      -2758.07491987
        238.13037405       1128.04274093      -1243.30055266
 Electronic spatial extent (au):  <R**2>=           5437.2824
 DipInt: DoE/N= F T RetVal/Mat= T F Init=T NMatP=  1 IDeriv=0 Min/MaxMlt=  0  4
 Nuclear    moments (au):
        136.00000000          0.00000000          0.00000000          0.00000000
       4026.11720123        818.03729353        369.65055384          0.00000000
          0.00000000          0.00000000      -7923.43542773         55.06156720
         93.72399447       2261.33680603      -1186.32423372        865.86104860
       -263.41896488        108.03006696         57.06378171        464.42697428
     231835.01973006      11363.88698652       2223.77881371       2431.18657650
       1463.87854527       -386.15614415       -507.55711893         47.00750112
       -210.75880341      21973.91245692      10969.32292392       2016.50121906
       -112.14636297      -1048.52670226       1299.81738008
 Total      moments (au):
          0.00000000          1.14297480          1.41527298         -0.12618081
        -69.94668752        -68.53603240        -84.99467118          4.78304227
         -1.19139718          1.49880448        201.52609420        -10.36986843
         11.20438941         72.74757093         -4.85982211          5.36990563
         23.85368459         12.54950002        -12.33991475         27.58653073
     -13715.08366125      -2622.90786488      -1516.95091411       -117.44431649
        181.01969943       -236.30751521         83.66596901         65.70369657
         46.30230208      -2388.58276802      -2695.39715166       -741.57370081
        125.98401108         79.51603867         56.51682742
 Traceless Quadrup. (au):
          4.54577618          5.95643130        -10.50220748          4.78304227
         -1.19139718          1.49880448
 Charge=              0.0000 electrons
 Dipole moment (field-independent basis, Debye):
    X=              2.9052    Y=              3.5973    Z=             -0.3207  Tot=              4.6350
 Quadrupole moment (field-independent basis, Debye-Ang):
   XX=            -94.0807   YY=            -92.1833   ZZ=           -114.3207
   XY=              6.4334   XZ=             -1.6025   YZ=              2.0159
 Traceless Quadrupole moment (field-independent basis, Debye-Ang):
   XX=              6.1142   YY=              8.0116   ZZ=            -14.1258
   XY=              6.4334   XZ=             -1.6025   YZ=              2.0159
 Octapole moment (field-independent basis, Debye-Ang**2):
  XXX=            143.4385  YYY=             -7.3809  ZZZ=              7.9749  XYY=             51.7789
  XXY=             -3.4590  XXZ=              3.8221  XZZ=             16.9781  YZZ=              8.9323
  YYZ=             -8.7831  XYZ=             19.6350
 Hexadecapole moment (field-independent basis, Debye-Ang**3):
 XXXX=          -5165.7578 YYYY=           -987.9128 ZZZZ=           -571.3564 XXXY=            -44.2352
 XXXZ=             68.1807 YYYX=            -89.0047 YYYZ=             31.5126 ZZZX=             24.7472
 ZZZY=             17.4397 XXYY=           -899.6547 XXZZ=          -1015.2157 YYZZ=           -279.3122
 XXYZ=             47.4516 YYXZ=             29.9496 ZZXY=             21.2869
 N-N= 1.409491178425D+03 E-N=-4.873187524696D+03  KE= 8.728036249736D+02
 Entering OneElI...
 OneElI was handed    33143046 working-precision words.
 Calculate electrostatic properties
    NBasis =   299  MinDer = 0  MaxDer = 0
    NGrid  =    39  NMatD  =   1
 Requested accuracy = 0.1000D-12
 PrsmSu:  NPrtUS=   1 ThrOK=F IAlg=1 NPAlg=1 LenDen=           0.
 Prism:   IPart=     0 DynPar=F LinDyn=F Incr=         512.
 PRISM was handed    32766544 working-precision words and  4610 shell-pairs
 IPart=  0 NShTot=      179790 NBatch=        4610 AvBLen=        39.0
 PrSmSu:  NxtVal=            513.
 --------------------------------------------------------
       Center         ----      EFG at Nuclei      ----
                      3XX-RR        3YY-RR        3ZZ-RR
 --------------------------------------------------------
     1   Atom        0.668157     -0.552683     -0.115474
     2   Atom        0.094868     -0.169965      0.075097
     3   Atom        0.306157     -0.231080     -0.075077
     4   Atom       -0.018896      0.029505     -0.010610
     5   Atom       -0.018938      0.025763     -0.006825
     6   Atom        0.004452     -0.002521     -0.001931
     7   Atom        0.000075     -0.011857      0.011782
     8   Atom        1.824564     -1.885938      0.061374
     9   Atom        1.796581     -1.790223     -0.006358
    10   Atom       -0.677095      0.348859      0.328236
    11   Atom       -0.099572     -0.001341      0.100914
    12   Atom       -0.126693      0.294102     -0.167409
    13   Atom        0.478516      0.402263     -0.880779
    14   Atom        0.182200      0.143252     -0.325453
    15   Atom        0.611412      0.483925     -1.095337
    16   Atom       -0.014628     -0.004087      0.018715
    17   Atom       -0.137949      0.169477     -0.031528
    18   Atom        0.222708     -0.091861     -0.130847
    19   Atom        0.148202     -0.051504     -0.096698
    20   Atom        0.147372     -0.082408     -0.064964
[...]
 8128 Fit      -0.002064
 8129 Fit      -0.007742
 8130 Fit      -0.012706
 8131 Fit      -0.010123
 8132 Fit      -0.004703
 8133 Fit      -0.006102
 8134 Fit       0.002586
 8135 Fit       0.005794
 8136 Fit       0.005180
 8137 Fit       0.002223
 8138 Fit       0.008278
 8139 Fit       0.006871
 8140 Fit       0.004576
 8141 Fit       0.009844
 8142 Fit       0.007781
 8143 Fit       0.005850
 8144 Fit       0.004951
 8145 Fit       0.010663
 8146 Fit       0.008058
 8147 Fit       0.006352
 8148 Fit       0.005821
 8149 Fit       0.006588
 8150 Fit       0.010786
 8151 Fit       0.007844
 8152 Fit       0.006270
 8153 Fit       0.005885
 8154 Fit       0.013896
 8155 Fit       0.010440
 8156 Fit       0.007263
 8157 Fit       0.005765
 8158 Fit       0.005485
 8159 Fit       0.013207
 8160 Fit       0.009798
 8161 Fit       0.006412
 8162 Fit       0.005011
 8163 Fit       0.004776
 8164 Fit       0.012011
 8165 Fit       0.008798
 8166 Fit       0.005367
 8167 Fit       0.004071
 8168 Fit       0.003887
 8169 Fit       0.014181
 8170 Fit       0.010587
 8171 Fit       0.007593
 8172 Fit       0.004193
 8173 Fit       0.003015
 8174 Fit       0.002894
 8175 Fit       0.012293
 8176 Fit       0.009007
 8177 Fit       0.006247
 8178 Fit       0.002944
 8179 Fit       0.001914
 8180 Fit       0.001837
 8181 Fit       0.002896
 8182 Fit       0.013140
 8183 Fit       0.010061
 8184 Fit       0.007195
 8185 Fit       0.004761
 8186 Fit       0.001674
 8187 Fit       0.000791
 8188 Fit       0.000824
 8189 Fit       0.001924
 8190 Fit       0.001409
 8191 Fit       0.005263
 8192 Fit       0.013082
 8193 Fit       0.010657
 8194 Fit       0.008029
 8195 Fit       0.005494
 8196 Fit       0.003304
 8197 Fit       0.000433
 8198 Fit      -0.000282
 8199 Fit      -0.000097
 8200 Fit       0.001107
 8201 Fit      -0.001454
 8202 Fit       0.001931
 8203 Fit       0.005140
 8204 Fit       0.007911
 8205 Fit       0.009928
 8206 Fit       0.010948
 8207 Fit       0.010892
 8208 Fit       0.009868
 8209 Fit       0.008128
 8210 Fit       0.006000
 8211 Fit       0.003814
 8212 Fit       0.001872
 8213 Fit      -0.000727
 8214 Fit      -0.001244
 8215 Fit      -0.000904
 8216 Fit       0.000374
 8217 Fit       0.002539
 8218 Fit      -0.004043
 8219 Fit      -0.001114
 8220 Fit       0.001635
 8221 Fit       0.003989
 8222 Fit       0.005671
 8223 Fit       0.006466
 8224 Fit       0.006316
 8225 Fit       0.005346
 8226 Fit       0.003824
 8227 Fit       0.002085
 8228 Fit       0.000466
 8229 Fit      -0.001763
 8230 Fit      -0.002055
 8231 Fit      -0.001496
 8232 Fit      -0.000050
 8233 Fit       0.002135
 8234 Fit      -0.006633
 8235 Fit      -0.004385
 8236 Fit      -0.002016
 8237 Fit       0.000136
 8238 Fit       0.001752
 8239 Fit       0.002574
 8240 Fit       0.002517
 8241 Fit       0.001713
 8242 Fit       0.000472
 8243 Fit      -0.000815
 8244 Fit      -0.002636
 8245 Fit      -0.002661
 8246 Fit      -0.001787
 8247 Fit      -0.000126
 8248 Fit       0.001870
 8249 Fit      -0.006002
 8250 Fit      -0.006414
 8251 Fit      -0.005219
 8252 Fit      -0.003415
 8253 Fit      -0.001725
 8254 Fit      -0.000659
 8255 Fit      -0.000465
 8256 Fit      -0.001031
 8257 Fit      -0.001937
 8258 Fit      -0.003324
 8259 Fit      -0.003043
 8260 Fit      -0.001952
 8261 Fit      -0.000803
 8262 Fit      -0.005026
 8263 Fit      -0.005318
 8264 Fit      -0.004264
 8265 Fit      -0.003095
 8266 Fit      -0.002644
 8267 Fit      -0.002943
 8268 Fit      -0.003831
 8269 Fit      -0.003326
 8270 Fit      -0.003303
 8271 Fit      -0.004535
 8272 Fit      -0.004525
 8273 Fit      -0.003927
 8274 Fit      -0.004201
 8275 Fit       0.019729
 8276 Fit       0.007532
 8277 Fit       0.011566
 8278 Fit       0.015598
 8279 Fit       0.017302
 8280 Fit       0.020478
 8281 Fit       0.023669
 8282 Fit       0.007308
 8283 Fit       0.010816
 8284 Fit       0.014106
 8285 Fit       0.015473
 8286 Fit       0.017924
 8287 Fit       0.020284
 8288 Fit       0.022575
 8289 Fit       0.006912
 8290 Fit       0.010084
 8291 Fit       0.012887
 8292 Fit       0.014042
 8293 Fit       0.016066
 8294 Fit       0.017932
 8295 Fit       0.019668
 8296 Fit       0.006231
 8297 Fit       0.009266
 8298 Fit       0.011808
 8299 Fit       0.012882
 8300 Fit       0.014698
 8301 Fit       0.016295
 8302 Fit       0.017702
 8303 Fit       0.005102
 8304 Fit       0.008270
 8305 Fit       0.010782
 8306 Fit       0.011919
 8307 Fit       0.013628
 8308 Fit       0.015059
 8309 Fit       0.016240
 8310 Fit       0.003838
 8311 Fit       0.007261
 8312 Fit       0.009850
 8313 Fit       0.011114
 8314 Fit       0.012744
 8315 Fit       0.014056
 8316 Fit       0.015078
 8317 Fit       0.006446
 8318 Fit       0.009075
 8319 Fit       0.010466
 8320 Fit       0.012124
 8321 Fit       0.013409
 8322 Fit       0.014363
 8323 Fit       0.005486
 8324 Fit       0.008324
 8325 Fit       0.010002
 8326 Fit       0.011689
 8327 Fit       0.012986
 8328 Fit       0.004902
 8329 Fit       0.007801
 8330 Fit       0.009779
 8331 Fit       0.011552
 8332 Fit       0.012961
 8333 Fit       0.004691
 8334 Fit       0.007507
 8335 Fit       0.009893
 8336 Fit       0.011866
 8337 Fit       0.005518
 8338 Fit       0.007579
 8339 Fit       0.010479
 8340 Fit       0.012758
 8341 Fit       0.008831
 8342 Fit       0.011732
 8343 Fit       0.008749
 8344 Fit       0.012152
 8345 Fit       0.012631
 8346 Fit       0.009189
 8347 Fit       0.008110
 8348 Fit       0.015073
 8349 Fit       0.016496
 8350 Fit       0.015942
 8351 Fit       0.013474
 8352 Fit       0.009443
 8353 Fit       0.007281
 8354 Fit       0.011838
 8355 Fit       0.017548
 8356 Fit       0.019142
 8357 Fit       0.019548
 8358 Fit       0.018754
 8359 Fit       0.016768
 8360 Fit       0.013651
 8361 Fit       0.009547
 8362 Fit       0.006302
 8363 Fit       0.010991
 8364 Fit       0.014804
 8365 Fit       0.019612
 8366 Fit       0.021259
 8367 Fit       0.022026
 8368 Fit       0.021908
 8369 Fit       0.020894
 8370 Fit       0.018975
 8371 Fit       0.016155
 8372 Fit       0.012464
 8373 Fit       0.007979
 8374 Fit       0.009405
 8375 Fit       0.013676
 8376 Fit       0.017084
 8377 Fit       0.021298
 8378 Fit       0.022977
 8379 Fit       0.023929
 8380 Fit       0.024156
 8381 Fit       0.023649
 8382 Fit       0.022387
 8383 Fit       0.020352
 8384 Fit       0.017529
 8385 Fit       0.013920
 8386 Fit       0.009536
 8387 Fit       0.011708
 8388 Fit       0.015691
 8389 Fit       0.018877
 8390 Fit       0.022639
 8391 Fit       0.024306
 8392 Fit       0.025370
 8393 Fit       0.025841
 8394 Fit       0.025711
 8395 Fit       0.024961
 8396 Fit       0.023564
 8397 Fit       0.021489
 8398 Fit       0.018723
 8399 Fit       0.015264
 8400 Fit       0.011109
 8401 Fit       0.009400
 8402 Fit       0.013776
 8403 Fit       0.017409
 8404 Fit       0.020350
 8405 Fit       0.023669
 8406 Fit       0.025380
 8407 Fit       0.026530
 8408 Fit       0.027132
 8409 Fit       0.027183
 8410 Fit       0.026661
 8411 Fit       0.025525
 8412 Fit       0.023728
 8413 Fit       0.021234
 8414 Fit       0.018048
 8415 Fit       0.014204
 8416 Fit       0.010564
 8417 Fit       0.014868
 8418 Fit       0.018453
 8419 Fit       0.021372
 8420 Fit       0.024428
 8421 Fit       0.026153
 8422 Fit       0.027368
 8423 Fit       0.028090
 8424 Fit       0.028324
 8425 Fit       0.028049
 8426 Fit       0.027218
 8427 Fit       0.025753
 8428 Fit       0.023573
 8429 Fit       0.011692
 8430 Fit       0.015838
 8431 Fit       0.019312
 8432 Fit       0.022160
 8433 Fit       0.024963
 8434 Fit       0.026717
 8435 Fit       0.027990
 8436 Fit       0.028813
 8437 Fit       0.029200
 8438 Fit       0.029143
 8439 Fit       0.016380
 8440 Fit       0.019844
 8441 Fit       0.022688
 8442 Fit       0.025339
 8443 Fit       0.027173
 8444 Fit       0.028520
 8445 Fit       0.029437
 8446 Fit       0.029969
 8447 Fit       0.016253
 8448 Fit       0.019956
 8449 Fit       0.022958
 8450 Fit       0.025651
 8451 Fit       0.027559
 8452 Fit       0.028979
 8453 Fit       0.023150
 8454 Fit       0.022366
 8455 Fit       0.018430
 8456 Fit       0.023689
 8457 Fit       0.020022
 8458 Fit       0.017245
 8459 Fit       0.015002
 8460 Fit       0.027812
 8461 Fit       0.023497
 8462 Fit       0.020353
 8463 Fit       0.017896
 8464 Fit       0.015869
 8465 Fit       0.014139
 8466 Fit       0.012646
 8467 Fit       0.025895
 8468 Fit       0.022517
 8469 Fit       0.019937
 8470 Fit       0.017852
 8471 Fit       0.016087
 8472 Fit       0.014546
 8473 Fit       0.013189
 8474 Fit       0.012023
 8475 Fit       0.027171
 8476 Fit       0.023877
 8477 Fit       0.021342
 8478 Fit       0.019306
 8479 Fit       0.017600
 8480 Fit       0.016115
 8481 Fit       0.014787
 8482 Fit       0.013586
 8483 Fit       0.012514
 8484 Fit       0.011603
 8485 Fit       0.024206
 8486 Fit       0.021814
 8487 Fit       0.019878
 8488 Fit       0.018258
 8489 Fit       0.016854
 8490 Fit       0.015599
 8491 Fit       0.014450
 8492 Fit       0.013393
 8493 Fit       0.012432
 8494 Fit       0.011599
 8495 Fit       0.027233
 8496 Fit       0.021713
 8497 Fit       0.019987
 8498 Fit       0.018525
 8499 Fit       0.017254
 8500 Fit       0.016116
 8501 Fit       0.015072
 8502 Fit       0.014097
 8503 Fit       0.013183
 8504 Fit       0.012338
 8505 Fit       0.011591
 8506 Fit       0.010992
 8507 Fit       0.026262
 8508 Fit       0.023781
 8509 Fit       0.019623
 8510 Fit       0.018338
 8511 Fit       0.017212
 8512 Fit       0.016202
 8513 Fit       0.015273
 8514 Fit       0.014400
 8515 Fit       0.013570
 8516 Fit       0.012782
 8517 Fit       0.012051
 8518 Fit       0.011403
 8519 Fit       0.010885
 8520 Fit       0.022857
 8521 Fit       0.021114
 8522 Fit       0.017856
 8523 Fit       0.016833
 8524 Fit       0.015921
 8525 Fit       0.015083
 8526 Fit       0.014295
 8527 Fit       0.013541
 8528 Fit       0.012817
 8529 Fit       0.012131
 8530 Fit       0.011506
 8531 Fit       0.010981
 8532 Fit       0.020432
 8533 Fit       0.019034
 8534 Fit       0.016347
 8535 Fit       0.015494
 8536 Fit       0.014727
 8537 Fit       0.014013
 8538 Fit       0.013330
 8539 Fit       0.012670
 8540 Fit       0.012038
 8541 Fit       0.011457
 8542 Fit       0.010962
 8543 Fit       0.017342
 8544 Fit       0.015060
 8545 Fit       0.014332
 8546 Fit       0.013680
 8547 Fit       0.013069
 8548 Fit       0.012483
 8549 Fit       0.011920
 8550 Fit       0.011398
 8551 Fit       0.010951
 8552 Fit       0.015924
 8553 Fit       0.013987
 8554 Fit       0.013313
 8555 Fit       0.012720
 8556 Fit       0.012171
 8557 Fit       0.011657
 8558 Fit       0.011194
 8559 Fit       0.010563
 8560 Fit       0.010938
 8561 Fit       0.011657
 8562 Fit       0.012855
 8563 Fit       0.014748
 8564 Fit       0.017687
 8565 Fit       0.012118
 8566 Fit       0.011672
 8567 Fit       0.011276
 8568 Fit       0.010942
 8569 Fit       0.010676
 8570 Fit       0.010492
 8571 Fit       0.010415
 8572 Fit       0.010479
 8573 Fit       0.010730
 8574 Fit       0.011227
 8575 Fit       0.012055
 8576 Fit       0.013332
 8577 Fit       0.015201
 8578 Fit       0.017776
 8579 Fit       0.013382
 8580 Fit       0.013025
 8581 Fit       0.012587
 8582 Fit       0.011430
 8583 Fit       0.011122
 8584 Fit       0.010842
 8585 Fit       0.010614
 8586 Fit       0.010459
 8587 Fit       0.010398
 8588 Fit       0.010463
 8589 Fit       0.010691
 8590 Fit       0.011130
 8591 Fit       0.011827
 8592 Fit       0.012807
 8593 Fit       0.013979
 8594 Fit       0.014894
 8595 Fit       0.012303
 8596 Fit       0.012134
 8597 Fit       0.011968
 8598 Fit       0.011728
 8599 Fit       0.010898
 8600 Fit       0.010715
 8601 Fit       0.010540
 8602 Fit       0.010409
 8603 Fit       0.010349
 8604 Fit       0.010388
 8605 Fit       0.010551
 8606 Fit       0.010852
 8607 Fit       0.011262
 8608 Fit       0.011633
 8609 Fit       0.011540
 8610 Fit       0.010142
 8611 Fit       0.010932
 8612 Fit       0.011068
 8613 Fit       0.011105
 8614 Fit       0.011043
 8615 Fit       0.010429
 8616 Fit       0.010358
 8617 Fit       0.010271
 8618 Fit       0.010218
 8619 Fit       0.010228
 8620 Fit       0.010302
 8621 Fit       0.010377
 8622 Fit       0.010240
 8623 Fit       0.009450
 8624 Fit       0.007543
 8625 Fit       0.005015
 8626 Fit       0.003849
 8627 Fit       0.005115
 8628 Fit       0.007356
 8629 Fit       0.008996
 8630 Fit       0.009849
 8631 Fit       0.010255
 8632 Fit       0.010419
 8633 Fit       0.009953
 8634 Fit       0.009988
 8635 Fit       0.009952
 8636 Fit       0.009886
 8637 Fit       0.009689
 8638 Fit       0.009036
 8639 Fit       0.007643
 8640 Fit       0.006326
 8641 Fit       0.006603
 8642 Fit       0.007992
 8643 Fit       0.009128
 8644 Fit       0.009723
 8645 Fit       0.009422
 8646 Fit       0.009503
 8647 Fit       0.009143
 8648 Fit       0.008184
 8649 Fit       0.007861
 8650 Fit       0.008797
 8651 Fit       0.008821
 8652 Fit       0.002559
 8653 Fit       0.006244
 8654 Fit       0.005402
 8655 Fit       0.004242
 8656 Fit       0.001629
 8657 Fit       0.008355
 8658 Fit       0.007695
 8659 Fit       0.007412
 8660 Fit       0.007324
 8661 Fit       0.007137
 8662 Fit       0.009457
 8663 Fit       0.008899
 8664 Fit       0.008797
 8665 Fit       0.009059
 8666 Fit       0.009744
 8667 Fit       0.009921
 8668 Fit       0.009579
 8669 Fit       0.009670
 8670 Fit       0.010134
 8671 Fit       0.011069
 8672 Fit       0.010172
 8673 Fit       0.010026
 8674 Fit       0.010268
 8675 Fit       0.010851
 8676 Fit       0.011844
 8677 Fit       0.013523
 8678 Fit       0.010279
 8679 Fit       0.010493
 8680 Fit       0.011063
 8681 Fit       0.011993
 8682 Fit       0.013408
 8683 Fit       0.010579
 8684 Fit       0.011107
 8685 Fit       0.011982
 8686 Fit       0.013255
 8687 Fit       0.015079
 8688 Fit       0.011253
 8689 Fit       0.012183
 8690 Fit       0.013519
 8691 Fit       0.015377
 8692 Fit       0.017968
 8693 Fit       0.011848
 8694 Fit       0.013101
 8695 Fit       0.014882
 8696 Fit       0.017374
 8697 Fit       0.020846
 8698 Fit       0.013018
 8699 Fit       0.014881
 8700 Fit       0.017566
 8701 Fit       0.021434
 8702 Fit       0.017420
 8703 Fit       0.021485
 8704 Fit       0.004300
 8705 Fit       0.003740
 8706 Fit       0.008423
 8707 Fit       0.008505
 8708 Fit       0.009803
 8709 Fit       0.011261
 8710 Fit       0.009366
 8711 Fit       0.012483
 8712 Fit       0.013612
 8713 Fit       0.013120
 8714 Fit       0.013154
 8715 Fit       0.008518
 8716 Fit       0.012890
 8717 Fit       0.015425
 8718 Fit       0.016515
 8719 Fit       0.016400
 8720 Fit       0.015241
 8721 Fit       0.014300
 8722 Fit       0.005496
 8723 Fit       0.011318
 8724 Fit       0.015145
 8725 Fit       0.017488
 8726 Fit       0.018649
 8727 Fit       0.018811
 8728 Fit       0.018090
 8729 Fit       0.016566
 8730 Fit       0.014831
 8731 Fit       0.008969
 8732 Fit       0.013715
 8733 Fit       0.016957
 8734 Fit       0.019040
 8735 Fit       0.020173
 8736 Fit       0.020487
 8737 Fit       0.020064
 8738 Fit       0.018958
 8739 Fit       0.017204
 8740 Fit       0.014839
 8741 Fit       0.008865
 8742 Fit       0.013702
 8743 Fit       0.017120
 8744 Fit       0.019439
 8745 Fit       0.020854
 8746 Fit       0.021490
 8747 Fit       0.021424
 8748 Fit       0.020704
 8749 Fit       0.019358
 8750 Fit       0.017400
 8751 Fit       0.008837
 8752 Fit       0.013477
 8753 Fit       0.016886
 8754 Fit       0.019314
 8755 Fit       0.020921
 8756 Fit       0.021810
 8757 Fit       0.022049
 8758 Fit       0.021680
 8759 Fit       0.020727
 8760 Fit       0.019199
 8761 Fit       0.017092
 8762 Fit       0.007283
 8763 Fit       0.011949
 8764 Fit       0.015535
 8765 Fit       0.018220
 8766 Fit       0.020131
 8767 Fit       0.021355
 8768 Fit       0.021952
 8769 Fit       0.021963
 8770 Fit       0.021410
 8771 Fit       0.020303
 8772 Fit       0.018636
 8773 Fit       0.016395
 8774 Fit       0.007541
 8775 Fit       0.011780
 8776 Fit       0.015162
 8777 Fit       0.017756
 8778 Fit       0.019628
 8779 Fit       0.020833
 8780 Fit       0.021413
 8781 Fit       0.021395
 8782 Fit       0.020793
 8783 Fit       0.019608
 8784 Fit       0.017825
 8785 Fit       0.015420
 8786 Fit       0.006045
 8787 Fit       0.010052
 8788 Fit       0.013458
 8789 Fit       0.016183
 8790 Fit       0.018216
 8791 Fit       0.019575
 8792 Fit       0.020278
 8793 Fit       0.020343
 8794 Fit       0.019775
 8795 Fit       0.018568
 8796 Fit       0.016700
 8797 Fit       0.004523
 8798 Fit       0.008019
 8799 Fit       0.011283
 8800 Fit       0.014054
 8801 Fit       0.016215
 8802 Fit       0.017724
 8803 Fit       0.018567
 8804 Fit       0.018741
 8805 Fit       0.018241
 8806 Fit       0.017051
 8807 Fit       0.015142
 8808 Fit       0.009636
 8809 Fit       0.012377
 8810 Fit       0.014500
 8811 Fit       0.015899
 8812 Fit       0.016526
 8813 Fit       0.016349
 8814 Fit       0.015342
 8815 Fit       0.010054
 8816 Fit       0.012149
 8817 Fit       0.013413
 8818 Fit       0.013746
 8819 Fit       0.013087
 -----------------------------------------------------------------
 Leave Link  602 at Tue Apr  1 17:09:39 2014, MaxMem=   33554432 cpu:       1.8

 Test job not archived.
 1\1\GINC-HANA\FOpt\RHF\6-31G(d)\C10H22N2O5\PIEONG\01-Apr-2014\0\\#HF/6
 -31G* SCF=tight Test Pop=MK iop(6/33=2) iop(6/42=6) opt # iop(6/50=1)\
 \remark line goes here\\0,1\N,-1.7998680107,1.6557477701,0.7687144693\
 C,-1.6550793329,0.30198967,0.2569227059\C,-0.3973506173,0.105902606,-0
 .6253309453\C,-2.9277871712,-0.1132635877,-0.4882941548\C,-4.234124619
 5,0.0145503347,0.3123994744\C,-5.4191630756,-0.3744876778,-0.578007593
 1\C,-4.2272865644,-0.8270010382,1.5918800355\O,-0.351354177,-1.1754838
 789,-1.1522153443\O,-0.4228054168,0.9187259546,-1.7500076567\N,0.77079
 61593,0.444331781,0.159097787\C,2.055064153,0.1501193237,-0.4293727316
 \C,2.4829698927,-1.2888430013,-0.1610041498\O,1.8579905154,-2.08339686
 6,0.4695439213\C,3.1408808478,1.1055659566,0.0826377391\O,3.2490501593
 ,0.8524106924,1.464437867\C,2.8236975208,2.5667822133,-0.1974377175\H,
 -0.9431607027,2.0029922488,1.1519249419\H,-2.1064887284,2.2866093006,0
 .0533559697\H,-1.5230588282,-0.3522330513,1.1154072199\H,-3.0044092632
 ,0.490439788,-1.3892693868\H,-2.8123986529,-1.1372123815,-0.8239035271
 \H,-4.3594833071,1.0528063099,0.6031993846\H,-5.353290746,-1.415380729
 3,-0.8851995684\H,-6.3616032961,-0.2440926685,-0.0539008782\H,-5.45438
 50443,0.2325619897,-1.4782129279\H,-3.4752704927,-0.4837042165,2.29321
 37647\H,-5.1887461254,-0.7697131473,2.093986689\H,-4.0337648888,-1.874
 7192653,1.3713484231\H,-0.0673647984,-1.7798127539,-0.4770962413\H,-0.
 3538911298,1.8167036152,-1.4572520619\H,0.7216631944,0.0729204508,1.08
 6485411\H,1.9797960477,0.2613911922,-1.5033313364\O,3.6444424738,-1.58
 86820931,-0.7222386375\H,4.0715537716,0.8432396059,-0.4100357481\H,3.9
 592437313,1.3581699502,1.8346542743\H,3.6338118009,3.1989226369,0.1567
 789579\H,2.7128364386,2.7427522634,-1.2630802956\H,1.9132894564,2.8617
 288265,0.3063475025\H,3.8510488263,-2.4963381239,-0.5191456358\\Versio
 n=EM64L-G09RevC.01\State=1-A\HF=-874.7040028\RMSD=8.399e-09\RMSF=7.876
 e-06\Dipole=1.6033348,0.8854215,0.2299929\Quadrupole=6.4331427,3.08004
 6,-9.5131887,1.3752015,1.0796536,-0.5828915\PG=C01 [X(C10H22N2O5)]\\@


 THE ONLY EXISTING THINGS ARE ATOMS AND EMPTY SPACE;
 ALL ELSE IS MERE OPINION. -- DEMOCRITUS OF ABDERA D. 370 B.C.
 EXPERIMENTS ARE THE ONLY MEANS OF KNOWLEDGE AT OUR DISPOSAL
 THE REST IS POETRY, IMAGINATION. -- MAX PLANCK
 Job cpu time:  0 days  1 hours 32 minutes 32.4 seconds.
 File lengths (MBytes):  RWF=     62 Int=      0 D2E=      0 Chk=      9 Scr=      1
 Normal termination of Gaussian 09 at Tue Apr  1 17:09:39 2014.
