 Entering Gaussian System, Link 0=g09
 Input=LTA.com
 Output=LTA.log
 Initial command:
 /soft/gaussian/g09/l1.exe /scratch/pieong/Gau-1964.inp -scrdir=/scratch/pieong/
 Entering Link 1 = /soft/gaussian/g09/l1.exe PID=      1976.
  
 Copyright (c) 1988,1990,1992,1993,1995,1998,2003,2009,2011,
            Gaussian, Inc.  All Rights Reserved.
  
 This is part of the Gaussian(R) 09 program.  It is based on
 the Gaussian(R) 03 system (copyright 2003, Gaussian, Inc.),
 the Gaussian(R) 98 system (copyright 1998, Gaussian, Inc.),
 the Gaussian(R) 94 system (copyright 1995, Gaussian, Inc.),
 the Gaussian 92(TM) system (copyright 1992, Gaussian, Inc.),
 the Gaussian 90(TM) system (copyright 1990, Gaussian, Inc.),
 the Gaussian 88(TM) system (copyright 1988, Gaussian, Inc.),
 the Gaussian 86(TM) system (copyright 1986, Carnegie Mellon
 University), and the Gaussian 82(TM) system (copyright 1983,
 Carnegie Mellon University). Gaussian is a federally registered
 trademark of Gaussian, Inc.
  
 This software contains proprietary and confidential information,
 including trade secrets, belonging to Gaussian, Inc.
  
 This software is provided under written license and may be
 used, copied, transmitted, or stored only in accord with that
 written license.
  
 The following legend is applicable only to US Government
 contracts under FAR:
  
                    RESTRICTED RIGHTS LEGEND
  
 Use, reproduction and disclosure by the US Government is
 subject to restrictions as set forth in subparagraphs (a)
 and (c) of the Commercial Computer Software - Restricted
 Rights clause in FAR 52.227-19.
  
 Gaussian, Inc.
 340 Quinnipiac St., Bldg. 40, Wallingford CT 06492
  
  
 ---------------------------------------------------------------
 Warning -- This program may not be used in any manner that
 competes with the business of Gaussian, Inc. or will provide
 assistance to any competitor of Gaussian, Inc.  The licensee
 of this program is prohibited from giving any competitor of
 Gaussian, Inc. access to this program.  By using this program,
 the user acknowledges that Gaussian, Inc. is engaged in the
 business of creating and licensing software in the field of
 computational chemistry and represents and warrants to the
 licensee that it is not a competitor of Gaussian, Inc. and that
 it will not use this program in any manner prohibited above.
 ---------------------------------------------------------------
  

 Cite this work as:
 Gaussian 09, Revision C.01,
 M. J. Frisch, G. W. Trucks, H. B. Schlegel, G. E. Scuseria, 
 M. A. Robb, J. R. Cheeseman, G. Scalmani, V. Barone, B. Mennucci, 
 G. A. Petersson, H. Nakatsuji, M. Caricato, X. Li, H. P. Hratchian, 
 A. F. Izmaylov, J. Bloino, G. Zheng, J. L. Sonnenberg, M. Hada, 
 M. Ehara, K. Toyota, R. Fukuda, J. Hasegawa, M. Ishida, T. Nakajima, 
 Y. Honda, O. Kitao, H. Nakai, T. Vreven, J. A. Montgomery, Jr., 
 J. E. Peralta, F. Ogliaro, M. Bearpark, J. J. Heyd, E. Brothers, 
 K. N. Kudin, V. N. Staroverov, T. Keith, R. Kobayashi, J. Normand, 
 K. Raghavachari, A. Rendell, J. C. Burant, S. S. Iyengar, J. Tomasi, 
 M. Cossi, N. Rega, J. M. Millam, M. Klene, J. E. Knox, J. B. Cross, 
 V. Bakken, C. Adamo, J. Jaramillo, R. Gomperts, R. E. Stratmann, 
 O. Yazyev, A. J. Austin, R. Cammi, C. Pomelli, J. W. Ochterski, 
 R. L. Martin, K. Morokuma, V. G. Zakrzewski, G. A. Voth, 
 P. Salvador, J. J. Dannenberg, S. Dapprich, A. D. Daniels, 
 O. Farkas, J. B. Foresman, J. V. Ortiz, J. Cioslowski, 
 and D. J. Fox, Gaussian, Inc., Wallingford CT, 2010.
 
 ******************************************
 Gaussian 09:  EM64L-G09RevC.01 23-Sep-2011
                 1-Apr-2014 
 ******************************************
 %chk=molecule
 ----------------------------------------------------------------------
 #HF/6-31G* SCF=tight Test Pop=MK iop(6/33=2) iop(6/42=6) opt # iop(6/5
 0=1)
 ----------------------------------------------------------------------
 1/18=20,19=15,38=1/1,3;
 2/9=110,12=2,17=6,18=5,40=1/2;
 3/5=1,6=6,7=1,11=9,16=1,25=1,30=1,71=1/1,2,3;
 4//1;
 5/5=2,32=2,38=5/2;
 6/7=2,8=2,9=2,10=2,15=8,20=1,28=1,33=2,42=6,50=1/1,2;
 7//1,2,3,16;
 1/18=20,19=15/3(2);
 2/9=110/2;
 99//99;
 2/9=110/2;
 3/5=1,6=6,7=1,11=9,16=1,25=1,30=1,71=1/1,2,3;
 4/5=5,16=3/1;
 5/5=2,32=2,38=5/2;
 7//1,2,3,16;
 1/18=20,19=15/3(-5);
 2/9=110/2;
 6/7=2,8=2,9=2,10=2,15=8,19=2,20=1,28=1,33=2,42=6,50=1/1,2;
 99/9=1/99;
 ---------------------
 remark line goes here
 ---------------------
 Charge =  0 Multiplicity = 1
 Symbolic Z-Matrix:
 N                    -1.496     0.908    -0.861 
 C                    -0.564    -0.226    -0.826 
 C                     0.36     -0.165    -2.044 
 C                    -0.476    -0.231    -3.323 
 C                     0.448    -0.169    -4.541 
 C                    -0.388    -0.235    -5.82 
 N                     0.499    -0.175    -6.989 
 C                     0.272    -0.16      0.452 
 O                     1.01      1.062     0.476 
 C                    -0.652    -0.222     1.67 
 C                     0.171    -0.157     2.93 
 O                     1.374    -0.07      2.861 
 O                    -0.431    -0.196     4.129 
 C                     0.362    -0.133     5.343 
 C                    -0.561    -0.195     6.56 
 H                    -1.95      0.883    -1.762 
 H                    -0.934     1.745    -0.843 
 H                    -1.127    -1.16     -0.845 
 H                     0.923     0.768    -2.025 
 H                     1.051    -1.007    -2.018 
 H                    -1.039    -1.164    -3.341 
 H                    -1.168     0.611    -3.349 
 H                     1.011     0.763    -4.522 
 H                     1.139    -1.011    -4.515 
 H                    -0.951    -1.168    -5.838 
 H                    -1.08      0.606    -5.846 
 H                    -0.092    -0.222    -7.805 
 H                     0.919     0.741    -6.988 
 H                     0.963    -1.003     0.478 
 H                     0.362     1.78      0.452 
 H                    -1.215    -1.155     1.652 
 H                    -1.343     0.619     1.644 
 H                     0.925     0.799     5.361 
 H                     1.054    -0.975     5.369 
 H                     0.034    -0.148     7.472 
 H                    -1.253     0.646     6.535 
 H                    -1.124    -1.128     6.542 
 

 GradGradGradGradGradGradGradGradGradGradGradGradGradGradGradGradGradGrad
 Berny optimization.
 Initialization pass.
                           ----------------------------
                           !    Initial Parameters    !
                           ! (Angstroms and Degrees)  !
 --------------------------                            --------------------------
 ! Name  Definition              Value          Derivative Info.                !
 --------------------------------------------------------------------------------
 ! R1    R(1,2)                  1.4683         estimate D2E/DX2                !
 ! R2    R(1,16)                 1.0092         estimate D2E/DX2                !
 ! R3    R(1,17)                 1.0083         estimate D2E/DX2                !
 ! R4    R(2,3)                  1.53           estimate D2E/DX2                !
 ! R5    R(2,8)                  1.5286         estimate D2E/DX2                !
 ! R6    R(2,18)                 1.0907         estimate D2E/DX2                !
 ! R7    R(3,4)                  1.5294         estimate D2E/DX2                !
 ! R8    R(3,19)                 1.0899         estimate D2E/DX2                !
 ! R9    R(3,20)                 1.0896         estimate D2E/DX2                !
 ! R10   R(4,5)                  1.5301         estimate D2E/DX2                !
 ! R11   R(4,21)                 1.0899         estimate D2E/DX2                !
 ! R12   R(4,22)                 1.0902         estimate D2E/DX2                !
 ! R13   R(5,6)                  1.5294         estimate D2E/DX2                !
 ! R14   R(5,23)                 1.089          estimate D2E/DX2                !
 ! R15   R(5,24)                 1.0896         estimate D2E/DX2                !
 ! R16   R(6,7)                  1.4686         estimate D2E/DX2                !
 ! R17   R(6,25)                 1.0899         estimate D2E/DX2                !
 ! R18   R(6,26)                 1.0894         estimate D2E/DX2                !
 ! R19   R(7,27)                 1.0086         estimate D2E/DX2                !
 ! R20   R(7,28)                 1.0077         estimate D2E/DX2                !
 ! R21   R(8,9)                  1.4278         estimate D2E/DX2                !
 ! R22   R(8,10)                 1.5301         estimate D2E/DX2                !
 ! R23   R(8,29)                 1.0903         estimate D2E/DX2                !
 ! R24   R(9,30)                 0.9675         estimate D2E/DX2                !
 ! R25   R(10,11)                1.5064         estimate D2E/DX2                !
 ! R26   R(10,31)                1.0899         estimate D2E/DX2                !
 ! R27   R(10,32)                1.0888         estimate D2E/DX2                !
 ! R28   R(11,12)                1.2081         estimate D2E/DX2                !
 ! R29   R(11,13)                1.3422         estimate D2E/DX2                !
 ! R30   R(13,14)                1.4514         estimate D2E/DX2                !
 ! R31   R(14,15)                1.5287         estimate D2E/DX2                !
 ! R32   R(14,33)                1.089          estimate D2E/DX2                !
 ! R33   R(14,34)                1.0902         estimate D2E/DX2                !
 ! R34   R(15,35)                1.0899         estimate D2E/DX2                !
 ! R35   R(15,36)                1.0894         estimate D2E/DX2                !
 ! R36   R(15,37)                1.0899         estimate D2E/DX2                !
 ! A1    A(2,1,16)             106.7201         estimate D2E/DX2                !
 ! A2    A(2,1,17)             106.672          estimate D2E/DX2                !
 ! A3    A(16,1,17)            106.6919         estimate D2E/DX2                !
 ! A4    A(1,2,3)              109.4855         estimate D2E/DX2                !
 ! A5    A(1,2,8)              109.4962         estimate D2E/DX2                !
 ! A6    A(1,2,18)             109.4693         estimate D2E/DX2                !
 ! A7    A(3,2,8)              109.4848         estimate D2E/DX2                !
 ! A8    A(3,2,18)             109.3896         estimate D2E/DX2                !
 ! A9    A(8,2,18)             109.5019         estimate D2E/DX2                !
 ! A10   A(2,3,4)              109.5053         estimate D2E/DX2                !
 ! A11   A(2,3,19)             109.4032         estimate D2E/DX2                !
 ! A12   A(2,3,20)             109.4628         estimate D2E/DX2                !
 ! A13   A(4,3,19)             109.505          estimate D2E/DX2                !
 ! A14   A(4,3,20)             109.4676         estimate D2E/DX2                !
 ! A15   A(19,3,20)            109.4833         estimate D2E/DX2                !
 ! A16   A(3,4,5)              109.5031         estimate D2E/DX2                !
 ! A17   A(3,4,21)             109.4587         estimate D2E/DX2                !
 ! A18   A(3,4,22)             109.4863         estimate D2E/DX2                !
 ! A19   A(5,4,21)             109.4814         estimate D2E/DX2                !
 ! A20   A(5,4,22)             109.4535         estimate D2E/DX2                !
 ! A21   A(21,4,22)            109.4443         estimate D2E/DX2                !
 ! A22   A(4,5,6)              109.5031         estimate D2E/DX2                !
 ! A23   A(4,5,23)             109.4503         estimate D2E/DX2                !
 ! A24   A(4,5,24)             109.4316         estimate D2E/DX2                !
 ! A25   A(6,5,23)             109.5186         estimate D2E/DX2                !
 ! A26   A(6,5,24)             109.4676         estimate D2E/DX2                !
 ! A27   A(23,5,24)            109.4561         estimate D2E/DX2                !
 ! A28   A(5,6,7)              109.4966         estimate D2E/DX2                !
 ! A29   A(5,6,25)             109.4587         estimate D2E/DX2                !
 ! A30   A(5,6,26)             109.5031         estimate D2E/DX2                !
 ! A31   A(7,6,25)             109.5009         estimate D2E/DX2                !
 ! A32   A(7,6,26)             109.4571         estimate D2E/DX2                !
 ! A33   A(25,6,26)            109.4109         estimate D2E/DX2                !
 ! A34   A(6,7,27)             106.7481         estimate D2E/DX2                !
 ! A35   A(6,7,28)             106.7424         estimate D2E/DX2                !
 ! A36   A(27,7,28)            106.7009         estimate D2E/DX2                !
 ! A37   A(2,8,9)              109.4938         estimate D2E/DX2                !
 ! A38   A(2,8,10)             109.4825         estimate D2E/DX2                !
 ! A39   A(2,8,29)             109.461          estimate D2E/DX2                !
 ! A40   A(9,8,10)             109.4781         estimate D2E/DX2                !
 ! A41   A(9,8,29)             109.4968         estimate D2E/DX2                !
 ! A42   A(10,8,29)            109.415          estimate D2E/DX2                !
 ! A43   A(8,9,30)             106.7719         estimate D2E/DX2                !
 ! A44   A(8,10,11)            109.5216         estimate D2E/DX2                !
 ! A45   A(8,10,31)            109.4814         estimate D2E/DX2                !
 ! A46   A(8,10,32)            109.4482         estimate D2E/DX2                !
 ! A47   A(11,10,31)           109.4502         estimate D2E/DX2                !
 ! A48   A(11,10,32)           109.4744         estimate D2E/DX2                !
 ! A49   A(31,10,32)           109.4515         estimate D2E/DX2                !
 ! A50   A(10,11,12)           119.9582         estimate D2E/DX2                !
 ! A51   A(10,11,13)           120.0598         estimate D2E/DX2                !
 ! A52   A(12,11,13)           119.982          estimate D2E/DX2                !
 ! A53   A(11,13,14)           120.0574         estimate D2E/DX2                !
 ! A54   A(13,14,15)           109.5262         estimate D2E/DX2                !
 ! A55   A(13,14,33)           109.4775         estimate D2E/DX2                !
 ! A56   A(13,14,34)           109.4649         estimate D2E/DX2                !
 ! A57   A(15,14,33)           109.4938         estimate D2E/DX2                !
 ! A58   A(15,14,34)           109.4477         estimate D2E/DX2                !
 ! A59   A(33,14,34)           109.4171         estimate D2E/DX2                !
 ! A60   A(14,15,35)           109.5593         estimate D2E/DX2                !
 ! A61   A(14,15,36)           109.5092         estimate D2E/DX2                !
 ! A62   A(14,15,37)           109.4801         estimate D2E/DX2                !
 ! A63   A(35,15,36)           109.4314         estimate D2E/DX2                !
 ! A64   A(35,15,37)           109.435          estimate D2E/DX2                !
 ! A65   A(36,15,37)           109.4123         estimate D2E/DX2                !
 ! D1    D(16,1,2,3)            53.74           estimate D2E/DX2                !
 ! D2    D(16,1,2,8)           173.7806         estimate D2E/DX2                !
 ! D3    D(16,1,2,18)          -66.1677         estimate D2E/DX2                !
 ! D4    D(17,1,2,3)           -60.0276         estimate D2E/DX2                !
 ! D5    D(17,1,2,8)            60.0131         estimate D2E/DX2                !
 ! D6    D(17,1,2,18)         -179.9352         estimate D2E/DX2                !
 ! D7    D(1,2,3,4)            -59.9522         estimate D2E/DX2                !
 ! D8    D(1,2,3,19)            60.0684         estimate D2E/DX2                !
 ! D9    D(1,2,3,20)          -179.9635         estimate D2E/DX2                !
 ! D10   D(8,2,3,4)           -179.9998         estimate D2E/DX2                !
 ! D11   D(8,2,3,19)           -59.9792         estimate D2E/DX2                !
 ! D12   D(8,2,3,20)            59.9889         estimate D2E/DX2                !
 ! D13   D(18,2,3,4)            60.0043         estimate D2E/DX2                !
 ! D14   D(18,2,3,19)         -179.9751         estimate D2E/DX2                !
 ! D15   D(18,2,3,20)          -60.0071         estimate D2E/DX2                !
 ! D16   D(1,2,8,9)            -60.0307         estimate D2E/DX2                !
 ! D17   D(1,2,8,10)            59.9985         estimate D2E/DX2                !
 ! D18   D(1,2,8,29)           179.9303         estimate D2E/DX2                !
 ! D19   D(3,2,8,9)             60.0104         estimate D2E/DX2                !
 ! D20   D(3,2,8,10)          -179.9604         estimate D2E/DX2                !
 ! D21   D(3,2,8,29)           -60.0286         estimate D2E/DX2                !
 ! D22   D(18,2,8,9)           179.9375         estimate D2E/DX2                !
 ! D23   D(18,2,8,10)          -60.0332         estimate D2E/DX2                !
 ! D24   D(18,2,8,29)           59.8986         estimate D2E/DX2                !
 ! D25   D(2,3,4,5)            179.9604         estimate D2E/DX2                !
 ! D26   D(2,3,4,21)           -60.0153         estimate D2E/DX2                !
 ! D27   D(2,3,4,22)            59.9534         estimate D2E/DX2                !
 ! D28   D(19,3,4,5)            60.002          estimate D2E/DX2                !
 ! D29   D(19,3,4,21)         -179.9736         estimate D2E/DX2                !
 ! D30   D(19,3,4,22)          -60.005          estimate D2E/DX2                !
 ! D31   D(20,3,4,5)           -60.0313         estimate D2E/DX2                !
 ! D32   D(20,3,4,21)           59.9931         estimate D2E/DX2                !
 ! D33   D(20,3,4,22)          179.9617         estimate D2E/DX2                !
 ! D34   D(3,4,5,6)            180.0            estimate D2E/DX2                !
 ! D35   D(3,4,5,23)           -59.9353         estimate D2E/DX2                !
 ! D36   D(3,4,5,24)            60.0092         estimate D2E/DX2                !
 ! D37   D(21,4,5,6)            59.9896         estimate D2E/DX2                !
 ! D38   D(21,4,5,23)         -179.9457         estimate D2E/DX2                !
 ! D39   D(21,4,5,24)          -60.0013         estimate D2E/DX2                !
 ! D40   D(22,4,5,6)           -59.9729         estimate D2E/DX2                !
 ! D41   D(22,4,5,23)           60.0918         estimate D2E/DX2                !
 ! D42   D(22,4,5,24)         -179.9637         estimate D2E/DX2                !
 ! D43   D(4,5,6,7)            179.9801         estimate D2E/DX2                !
 ! D44   D(4,5,6,25)           -59.9757         estimate D2E/DX2                !
 ! D45   D(4,5,6,26)            59.9623         estimate D2E/DX2                !
 ! D46   D(23,5,6,7)            59.9571         estimate D2E/DX2                !
 ! D47   D(23,5,6,25)         -179.9987         estimate D2E/DX2                !
 ! D48   D(23,5,6,26)          -60.0606         estimate D2E/DX2                !
 ! D49   D(24,5,6,7)           -60.0511         estimate D2E/DX2                !
 ! D50   D(24,5,6,25)           59.9931         estimate D2E/DX2                !
 ! D51   D(24,5,6,26)          179.9311         estimate D2E/DX2                !
 ! D52   D(5,6,7,27)           179.9591         estimate D2E/DX2                !
 ! D53   D(5,6,7,28)           -66.2177         estimate D2E/DX2                !
 ! D54   D(25,6,7,27)           59.9406         estimate D2E/DX2                !
 ! D55   D(25,6,7,28)          173.7639         estimate D2E/DX2                !
 ! D56   D(26,6,7,27)          -59.995          estimate D2E/DX2                !
 ! D57   D(26,6,7,28)           53.8282         estimate D2E/DX2                !
 ! D58   D(2,8,9,30)            59.9986         estimate D2E/DX2                !
 ! D59   D(10,8,9,30)          -60.0333         estimate D2E/DX2                !
 ! D60   D(29,8,9,30)         -179.9843         estimate D2E/DX2                !
 ! D61   D(2,8,10,11)         -179.9993         estimate D2E/DX2                !
 ! D62   D(2,8,10,31)           59.9894         estimate D2E/DX2                !
 ! D63   D(2,8,10,32)          -59.9786         estimate D2E/DX2                !
 ! D64   D(9,8,10,11)          -59.9604         estimate D2E/DX2                !
 ! D65   D(9,8,10,31)         -179.9717         estimate D2E/DX2                !
 ! D66   D(9,8,10,32)           60.0602         estimate D2E/DX2                !
 ! D67   D(29,8,10,11)          60.0408         estimate D2E/DX2                !
 ! D68   D(29,8,10,31)         -59.9706         estimate D2E/DX2                !
 ! D69   D(29,8,10,32)        -179.9386         estimate D2E/DX2                !
 ! D70   D(8,10,11,12)          -0.0025         estimate D2E/DX2                !
 ! D71   D(8,10,11,13)        -179.9854         estimate D2E/DX2                !
 ! D72   D(31,10,11,12)        120.028          estimate D2E/DX2                !
 ! D73   D(31,10,11,13)        -59.955          estimate D2E/DX2                !
 ! D74   D(32,10,11,12)       -120.007          estimate D2E/DX2                !
 ! D75   D(32,10,11,13)         60.01           estimate D2E/DX2                !
 ! D76   D(10,11,13,14)       -179.9832         estimate D2E/DX2                !
 ! D77   D(12,11,13,14)          0.0339         estimate D2E/DX2                !
 ! D78   D(11,13,14,15)        179.9849         estimate D2E/DX2                !
 ! D79   D(11,13,14,33)         59.9197         estimate D2E/DX2                !
 ! D80   D(11,13,14,34)        -60.0141         estimate D2E/DX2                !
 ! D81   D(13,14,15,35)        179.9847         estimate D2E/DX2                !
 ! D82   D(13,14,15,36)        -59.9868         estimate D2E/DX2                !
 ! D83   D(13,14,15,37)         59.9697         estimate D2E/DX2                !
 ! D84   D(33,14,15,35)        -59.96           estimate D2E/DX2                !
 ! D85   D(33,14,15,36)         60.0685         estimate D2E/DX2                !
 ! D86   D(33,14,15,37)       -179.9751         estimate D2E/DX2                !
 ! D87   D(34,14,15,35)         59.9731         estimate D2E/DX2                !
 ! D88   D(34,14,15,36)       -179.9984         estimate D2E/DX2                !
 ! D89   D(34,14,15,37)        -60.0419         estimate D2E/DX2                !
 --------------------------------------------------------------------------------
 Trust Radius=3.00D-01 FncErr=1.00D-07 GrdErr=1.00D-07
 Number of steps in this run=    200 maximum allowed number of steps=    222.
 GradGradGradGradGradGradGradGradGradGradGradGradGradGradGradGradGradGrad

                          Input orientation:                          
 ---------------------------------------------------------------------
 Center     Atomic      Atomic             Coordinates (Angstroms)
 Number     Number       Type             X           Y           Z
 ---------------------------------------------------------------------
      1          7           0       -1.496000    0.908000   -0.861000
      2          6           0       -0.564000   -0.226000   -0.826000
      3          6           0        0.360000   -0.165000   -2.044000
      4          6           0       -0.476000   -0.231000   -3.323000
      5          6           0        0.448000   -0.169000   -4.541000
      6          6           0       -0.388000   -0.235000   -5.820000
      7          7           0        0.499000   -0.175000   -6.989000
      8          6           0        0.272000   -0.160000    0.452000
      9          8           0        1.010000    1.062000    0.476000
     10          6           0       -0.652000   -0.222000    1.670000
     11          6           0        0.171000   -0.157000    2.930000
     12          8           0        1.374000   -0.070000    2.861000
     13          8           0       -0.431000   -0.196000    4.129000
     14          6           0        0.362000   -0.133000    5.343000
     15          6           0       -0.561000   -0.195000    6.560000
     16          1           0       -1.950000    0.883000   -1.762000
     17          1           0       -0.934000    1.745000   -0.843000
     18          1           0       -1.127000   -1.160000   -0.845000
     19          1           0        0.923000    0.768000   -2.025000
     20          1           0        1.051000   -1.007000   -2.018000
     21          1           0       -1.039000   -1.164000   -3.341000
     22          1           0       -1.168000    0.611000   -3.349000
     23          1           0        1.011000    0.763000   -4.522000
     24          1           0        1.139000   -1.011000   -4.515000
     25          1           0       -0.951000   -1.168000   -5.838000
     26          1           0       -1.080000    0.606000   -5.846000
     27          1           0       -0.092000   -0.222000   -7.805000
     28          1           0        0.919000    0.741000   -6.988000
     29          1           0        0.963000   -1.003000    0.478000
     30          1           0        0.362000    1.780000    0.452000
     31          1           0       -1.215000   -1.155000    1.652000
     32          1           0       -1.343000    0.619000    1.644000
     33          1           0        0.925000    0.799000    5.361000
     34          1           0        1.054000   -0.975000    5.369000
     35          1           0        0.034000   -0.148000    7.472000
     36          1           0       -1.253000    0.646000    6.535000
     37          1           0       -1.124000   -1.128000    6.542000
 ---------------------------------------------------------------------
                    Distance matrix (angstroms):
                    1          2          3          4          5
     1  N    0.000000
     2  C    1.468266   0.000000
     3  C    2.448582   1.530040   0.000000
     4  C    2.898131   2.498555   1.529409   0.000000
     5  C    4.299007   3.850794   2.498553   1.530080   0.000000
     6  C    5.208243   4.997108   3.850010   2.498553   1.529409
     7  N    6.534929   6.254210   4.946963   3.793853   2.448539
     8  C    2.447533   1.528573   2.497556   3.849048   4.996109
     9  O    2.844525   2.414876   2.877226   4.279304   5.196296
    10  C    2.897447   2.497554   3.849830   4.996109   6.307878
    11  C    4.276072   3.827861   4.977596   6.286819   7.476143
    12  O    4.800695   4.168231   5.009615   6.456801   7.460354
    13  O    5.220454   4.956875   6.223550   7.452218   8.714486
    14  C    6.559380   6.238805   7.387070   8.706974   9.884440
    15  C    7.560560   7.386066   8.653205   9.883431  11.146791
    16  H    1.009228   2.006732   2.552240   2.418759   3.818370
    17  H    1.008334   2.005500   2.600949   3.203863   4.387314
    18  H    2.100724   1.090727   2.153786   2.725312   4.138009
    19  H    2.688133   2.153324   1.089871   2.154067   2.726509
    20  H    3.390145   2.153845   1.089551   2.153353   2.726056
    21  H    3.263807   2.725930   2.153465   1.089854   2.154343
    22  H    2.527041   2.725970   2.154062   1.090185   2.154233
    23  H    4.439481   4.137531   2.724971   2.153324   1.089015
    24  H    4.896683   4.138255   2.725509   2.153483   1.089551
    25  H    5.420086   5.114419   4.137531   2.725586   2.153465
    26  H    5.011435   5.114575   4.138024   2.725970   2.153702
    27  H    7.174068   6.994944   5.778986   4.498429   3.308792
    28  H    6.587886   6.411289   5.057317   4.040177   2.652876
    29  H    3.389915   2.153108   2.725131   4.136944   5.113819
    30  H    2.436497   2.552410   3.164340   4.358554   5.360601
    31  H    3.263449   2.725312   4.137770   5.113758   6.487759
    32  H    2.526253   2.724292   4.137174   5.113245   6.487130
    33  H    6.677305   6.445674   7.488828   8.856385   9.960630
    34  H    6.990071   6.446468   7.489346   8.856935   9.961173
    35  H    8.537852   8.319885   9.521598  10.807359  12.020150
    36  H    7.404628   7.444422   8.766911   9.927387  11.235453
    37  H    7.686878   7.444100   8.766357   9.926869  11.234935
                    6          7          8          9         10
     6  C    0.000000
     7  N    1.468649   0.000000
     8  C    6.307076   7.444477   0.000000
     9  O    6.578467   7.584030   1.427762   0.000000
    10  C    7.494662   8.735290   1.530080   2.415892   0.000000
    11  C    8.768185   9.924438   2.480059   2.865658   1.506371
    12  O    8.859550   9.889345   2.650620   2.664985   2.355050
    13  O    9.949169  11.156848   3.743773   4.123524   2.469048
    14  C   11.188631  12.332832   4.891902   5.053278   3.811436
    15  C   12.381273  13.590416   6.164639   6.408053   4.890921
    16  H    4.489669   5.868432   3.305591   3.715143   3.832030
    17  H    5.384148   6.596454   2.600093   2.446505   3.203714
    18  H    5.113939   6.431395   2.153929   3.353967   2.725930
    19  H    4.138448   5.070535   2.724062   2.519723   4.136877
    20  H    4.137863   5.070283   2.724913   3.240753   4.137364
    21  H    2.726221   4.080621   4.136857   4.870623   5.113439
    22  H    2.725795   4.079986   4.137106   4.424671   5.113757
    23  H    2.153604   2.688508   5.112605   5.006936   6.486652
    24  H    2.153353   2.688712   5.113412   5.405927   6.487251
    25  H    1.089854   2.100797   6.486593   6.977465   7.573268
    26  H    1.089413   2.099917   6.486869   6.674108   7.573574
    27  H    2.006990   1.008636   8.265252   8.452102   9.491534
    28  H    2.006252   1.007699   7.522234   7.471454   8.851914
    29  H    6.486897   7.527082   1.090324   2.065536   2.153845
    30  H    6.630287   7.694756   1.942087   0.967473   2.553375
    31  H    7.573712   8.863694   2.154343   3.353907   1.089854
    32  H    7.573152   8.862962   2.153121   2.664035   1.088778
    33  H   11.305215  12.395671   5.044241   4.892813   4.141600
    34  H   11.305781  12.396297   5.045061   5.300260   4.142469
    35  H   13.298982  14.468499   7.024044   7.166637   5.842883
    36  H   12.416538  13.661703   6.322828   6.481181   4.978238
    37  H   12.416046  13.661270   6.322495   6.793115   4.977952
                   11         12         13         14         15
    11  C    0.000000
    12  O    1.208114   0.000000
    13  O    1.342209   2.209463   0.000000
    14  C    2.420666   2.681126   1.451418   0.000000
    15  C    3.703265   4.176416   2.434474   1.528680   0.000000
    16  H    5.253104   5.773155   6.178631   7.540466   8.505709
    17  H    4.367397   4.726595   5.361089   6.593413   7.662058
    18  H    4.115998   4.601906   5.114136   6.446952   7.489032
    19  H    5.096386   4.977815   6.374506   7.444054   8.765378
    20  H    5.097019   4.978648   6.374924   7.444657   8.765841
    21  H    6.465570   6.744198   7.556956   8.856501   9.959781
    22  H    6.465956   6.744600   7.557440   8.856935   9.960239
    23  H    7.555416   7.438706   8.822633   9.926845  11.233863
    24  H    7.556081   7.439495   8.823143   9.927476  11.234388
    25  H    8.897125   9.071043  10.027775  11.305306  12.442236
    26  H    8.897491   9.071435  10.028212  11.305716  12.442660
    27  H   10.738418  10.767350  11.938842  13.156137  14.372679
    28  H    9.986623   9.892803  11.237800  12.374477  13.660703
    29  H    2.712063   2.591930   3.990525   4.978587   6.321880
    30  H    3.151021   3.201550   4.248971   5.251804   6.485385
    31  H    2.133139   3.056440   2.769452   4.141847   5.043588
    32  H    2.132643   3.055798   2.769692   4.141875   5.043925
    33  H    2.718862   2.684541   2.084847   1.088998   2.152634
    34  H    2.719841   2.685422   2.085585   1.090185   2.152930
    35  H    4.544075   4.802396   3.375526   2.154170   1.089944
    36  H    3.958360   4.572971   2.678336   2.153121   1.089390
    37  H    3.958082   4.572650   2.677955   2.153096   1.089854
                   16         17         18         19         20
    16  H    0.000000
    17  H    1.618598   0.000000
    18  H    2.385805   2.911405   0.000000
    19  H    2.887304   2.408340   3.051571   0.000000
    20  H    3.555789   3.590871   2.478512   1.779623   0.000000
    21  H    2.741053   3.835793   2.497554   3.051872   2.478523
    22  H    1.789994   2.760570   3.067269   2.479900   3.051794
    23  H    4.049632   4.275791   4.667901   2.498555   3.066678
    24  H    4.550623   5.037504   4.315768   3.067833   2.498553
    25  H    4.671015   5.782377   4.996107   4.668934   4.315823
    26  H    4.184816   5.133093   5.303863   4.317209   4.668674
    27  H    6.418024   7.283371   7.098779   5.951363   5.950802
    28  H    5.963422   6.496357   6.748064   4.963075   5.270088
    29  H    4.130395   3.590982   2.478523   3.066439   2.497554
    30  H    3.324417   1.832448   3.541600   2.733934   3.787214
    31  H    4.043398   3.835881   2.498555   4.667901   4.315734
    32  H    3.469723   2.760494   3.067021   4.314918   4.667479
    33  H    7.681784   6.545259   6.823696   7.386065   7.597839
    34  H    7.957848   7.066788   6.588231   7.597792   7.387070
    35  H    9.500841   8.582523   8.458401   9.582400   9.582916
    36  H    8.329597   7.466220   7.598810   8.833089   9.010807
    37  H    8.583869   7.926440   7.387070   9.009912   8.832829
                   21         22         23         24         25
    21  H    0.000000
    22  H    1.779699   0.000000
    23  H    3.051326   2.479329   0.000000
    24  H    2.478985   3.051670   1.778626   0.000000
    25  H    2.498553   3.067092   3.051239   2.478523   0.000000
    26  H    3.067508   2.498555   2.479900   3.051264   1.778702
    27  H    4.659557   4.659142   3.600684   3.600275   2.345610
    28  H    4.556687   4.196998   2.467814   3.038689   2.909241
    29  H    4.314938   4.668199   5.302929   4.996107   6.601703
    30  H    5.001678   4.260876   5.118219   5.750174   7.069567
    31  H    4.996109   5.303863   6.837549   6.602571   7.494662
    32  H    5.302993   4.996072   6.601637   6.837434   7.702425
    33  H    9.134302   8.959916   9.883440  10.042772  11.524151
    34  H    8.959937   9.135437  10.042628   9.884431  11.386576
    35  H   10.913503  10.913978  12.068160  12.068718  13.385318
    36  H   10.042772   9.884427  11.287012  11.426715  12.508914
    37  H    9.883431  10.042805  11.425682  11.286811  12.381273
                   26         27         28         29         30
    26  H    0.000000
    27  H    2.345082   0.000000
    28  H    2.306163   1.617708   0.000000
    29  H    6.837814   8.386362   7.667113   0.000000
    30  H    6.566768   8.508359   7.532820   2.847273   0.000000
    31  H    7.703204   9.569037   9.099361   2.478924   3.541349
    32  H    7.494627   9.568484   8.924290   3.050914   2.382396
    33  H   11.386576  13.244632  12.349138   5.205030   5.037620
    34  H   11.525179  13.245173  12.476311   4.891927   5.678537
    35  H   13.385762  15.277699  14.514308   7.107046   7.287329
    36  H   12.382273  14.413082  13.696647   6.657109   6.395082
    37  H   12.508846  14.412573  13.810428   6.414304   6.910337
                   31         32         33         34         35
    31  H    0.000000
    32  H    1.778630   0.000000
    33  H    4.706846   4.358017   0.000000
    34  H    4.358538   4.707661   1.778702   0.000000
    35  H    6.037090   6.037384   2.479317   2.479302   0.000000
    36  H    5.204684   4.891902   2.478985   3.051138   1.778981
    37  H    4.890921   5.204841   3.050654   2.478512   1.779400
                   36         37
    36  H    0.000000
    37  H    1.778698   0.000000
 Stoichiometry    C10H22N2O3
 Framework group  C1[X(C10H22N2O3)]
 Deg. of freedom   105
 Full point group                 C1      NOp   1
 Largest Abelian subgroup         C1      NOp   1
 Largest concise Abelian subgroup C1      NOp   1
                         Standard orientation:                         
 ---------------------------------------------------------------------
 Center     Atomic      Atomic             Coordinates (Angstroms)
 Number     Number       Type             X           Y           Z
 ---------------------------------------------------------------------
      1          7           0        0.802290    1.484937    0.893670
      2          6           0        0.766802    0.542470   -0.231630
      3          6           0        1.985762   -0.379772   -0.163594
      4          6           0        3.263878    0.456795   -0.238882
      5          6           0        4.482838   -0.465438   -0.169846
      6          6           0        5.760954    0.371129   -0.245134
      7          7           0        6.930877   -0.514171   -0.178380
      8          6           0       -0.510314   -0.294096   -0.156343
      9          8           0       -0.532116   -1.020800    1.072449
     10          6           0       -1.729274    0.628137   -0.225379
     11          6           0       -2.988404   -0.195422   -0.151235
     12          8           0       -2.918144   -1.397501   -0.053213
     13          8           0       -4.188028    0.405055   -0.194321
     14          6           0       -5.401189   -0.388480   -0.122510
     15          6           0       -6.619148    0.532754   -0.191537
     16          1           0        1.702823    1.939541    0.863373
     17          1           0        0.785849    0.930675    1.735847
     18          1           0        0.784124    1.096837   -1.170812
     19          1           0        1.968439   -0.934148    0.774588
     20          1           0        1.959398   -1.078544   -0.999144
     21          1           0        3.280201    1.011170   -1.177063
     22          1           0        3.290240    1.156567    0.596659
     23          1           0        4.465514   -1.019824    0.767336
     24          1           0        4.456475   -1.164210   -1.005396
     25          1           0        5.777277    0.925504   -1.183315
     26          1           0        5.787315    1.070891    0.589406
     27          1           0        7.746252    0.077143   -0.231838
     28          1           0        6.931396   -0.925693    0.741460
     29          1           0       -0.536678   -0.992877   -0.992893
     30          1           0       -0.507863   -0.366173    1.784404
     31          1           0       -1.712951    1.182512   -1.163560
     32          1           0       -1.702912    1.326899    0.609171
     33          1           0       -5.417513   -0.942864    0.814671
     34          1           0       -5.427551   -1.088251   -0.958051
     35          1           0       -7.530519   -0.062651   -0.137925
     36          1           0       -6.593787    1.232516    0.643004
     37          1           0       -6.602825    1.087129   -1.129719
 ---------------------------------------------------------------------
 Rotational constants (GHZ):      2.6573795      0.1459155      0.1427713
 Standard basis: 6-31G(d) (6D, 7F)
 There are   269 symmetry adapted basis functions of A   symmetry.
 Integral buffers will be    131072 words long.
 Raffenetti 1 integral format.
 Two-electron integral symmetry is turned on.
   269 basis functions,   508 primitive gaussians,   269 cartesian basis functions
    60 alpha electrons       60 beta electrons
       nuclear repulsion energy      1031.4830365738 Hartrees.
 NAtoms=   37 NActive=   37 NUniq=   37 SFac= 1.00D+00 NAtFMM=   60 NAOKFM=F Big=F
 One-electron integrals computed using PRISM.
 NBasis=   269 RedAO= T  NBF=   269
 NBsUse=   269 1.00D-06 NBFU=   269
 Harris functional with IExCor=  205 diagonalized for initial guess.
 ExpMin= 1.61D-01 ExpMax= 5.48D+03 ExpMxC= 8.25D+02 IAcc=1 IRadAn=         1 AccDes= 0.00D+00
 HarFok:  IExCor=  205 AccDes= 0.00D+00 IRadAn=         1 IDoV= 1
 ScaDFX=  1.000000  1.000000  1.000000  1.000000
 FoFCou: FMM=F IPFlag=           0 FMFlag=      100000 FMFlg1=           0
         NFxFlg=           0 DoJE=T BraDBF=F KetDBF=T FulRan=T
         Omega=  0.000000  0.000000  1.000000  0.000000  0.000000 ICntrl=     500 IOpCl=  0
         NMat0=    1 NMatS0=    1 NMatT0=    0 NMatD0=    1 NMtDS0=    0 NMtDT0=    0
         I1Cent=           4 NGrid=           0.
 Petite list used in FoFCou.
 Initial guess orbital symmetries:
       Occupied  (A) (A) (A) (A) (A) (A) (A) (A) (A) (A) (A) (A)
                 (A) (A) (A) (A) (A) (A) (A) (A) (A) (A) (A) (A)
                 (A) (A) (A) (A) (A) (A) (A) (A) (A) (A) (A) (A)
                 (A) (A) (A) (A) (A) (A) (A) (A) (A) (A) (A) (A)
                 (A) (A) (A) (A) (A) (A) (A) (A) (A) (A) (A) (A)
       Virtual   (A) (A) (A) (A) (A) (A) (A) (A) (A) (A) (A) (A)
                 (A) (A) (A) (A) (A) (A) (A) (A) (A) (A) (A) (A)
                 (A) (A) (A) (A) (A) (A) (A) (A) (A) (A) (A) (A)
                 (A) (A) (A) (A) (A) (A) (A) (A) (A) (A) (A) (A)
                 (A) (A) (A) (A) (A) (A) (A) (A) (A) (A) (A) (A)
                 (A) (A) (A) (A) (A) (A) (A) (A) (A) (A) (A) (A)
                 (A) (A) (A) (A) (A) (A) (A) (A) (A) (A) (A) (A)
                 (A) (A) (A) (A) (A) (A) (A) (A) (A) (A) (A) (A)
                 (A) (A) (A) (A) (A) (A) (A) (A) (A) (A) (A) (A)
                 (A) (A) (A) (A) (A) (A) (A) (A) (A) (A) (A) (A)
                 (A) (A) (A) (A) (A) (A) (A) (A) (A) (A) (A) (A)
                 (A) (A) (A) (A) (A) (A) (A) (A) (A) (A) (A) (A)
                 (A) (A) (A) (A) (A) (A) (A) (A) (A) (A) (A) (A)
                 (A) (A) (A) (A) (A) (A) (A) (A) (A) (A) (A) (A)
                 (A) (A) (A) (A) (A) (A) (A) (A) (A) (A) (A) (A)
                 (A) (A) (A) (A) (A) (A) (A) (A) (A) (A) (A) (A)
                 (A) (A) (A) (A) (A) (A) (A) (A) (A) (A) (A) (A)
                 (A) (A) (A) (A) (A)
 The electronic state of the initial guess is 1-A.
 Requested convergence on RMS density matrix=1.00D-08 within 128 cycles.
 Requested convergence on MAX density matrix=1.00D-06.
 Requested convergence on             energy=1.00D-06.
 No special actions if energy rises.
 Integral accuracy reduced to 1.0D-05 until final iterations.
 Initial convergence to 1.0D-05 achieved.  Increase integral accuracy.
 SCF Done:  E(RHF) =  -724.942498157     A.U. after   14 cycles
             Convg  =    0.8095D-08             -V/T =  2.0016

 **********************************************************************

            Population analysis using the SCF density.

 **********************************************************************

 Orbital symmetries:
 BldTbl:  Degeneracy threshold= 1.00D-02
       Occupied  (A) (A) (A) (A) (A) (A) (A) (A) (A) (A) (A) (A)
                 (A) (A) (A) (A) (A) (A) (A) (A) (A) (A) (A) (A)
                 (A) (A) (A) (A) (A) (A) (A) (A) (A) (A) (A) (A)
                 (A) (A) (A) (A) (A) (A) (A) (A) (A) (A) (A) (A)
                 (A) (A) (A) (A) (A) (A) (A) (A) (A) (A) (A) (A)
       Virtual   (A) (A) (A) (A) (A) (A) (A) (A) (A) (A) (A) (A)
                 (A) (A) (A) (A) (A) (A) (A) (A) (A) (A) (A) (A)
                 (A) (A) (A) (A) (A) (A) (A) (A) (A) (A) (A) (A)
                 (A) (A) (A) (A) (A) (A) (A) (A) (A) (A) (A) (A)
                 (A) (A) (A) (A) (A) (A) (A) (A) (A) (A) (A) (A)
                 (A) (A) (A) (A) (A) (A) (A) (A) (A) (A) (A) (A)
                 (A) (A) (A) (A) (A) (A) (A) (A) (A) (A) (A) (A)
                 (A) (A) (A) (A) (A) (A) (A) (A) (A) (A) (A) (A)
                 (A) (A) (A) (A) (A) (A) (A) (A) (A) (A) (A) (A)
                 (A) (A) (A) (A) (A) (A) (A) (A) (A) (A) (A) (A)
                 (A) (A) (A) (A) (A) (A) (A) (A) (A) (A) (A) (A)
                 (A) (A) (A) (A) (A) (A) (A) (A) (A) (A) (A) (A)
                 (A) (A) (A) (A) (A) (A) (A) (A) (A) (A) (A) (A)
                 (A) (A) (A) (A) (A) (A) (A) (A) (A) (A) (A) (A)
                 (A) (A) (A) (A) (A) (A) (A) (A) (A) (A) (A) (A)
                 (A) (A) (A) (A) (A) (A) (A) (A) (A) (A) (A) (A)
                 (A) (A) (A) (A) (A) (A) (A) (A) (A) (A) (A) (A)
                 (A) (A) (A) (A) (A)
 The electronic state is 1-A.
 Alpha  occ. eigenvalues --  -20.59395 -20.55787 -20.52735 -15.55078 -15.53801
 Alpha  occ. eigenvalues --  -11.36646 -11.28694 -11.28128 -11.25407 -11.24533
 Alpha  occ. eigenvalues --  -11.23581 -11.22351 -11.22336 -11.21735 -11.21477
 Alpha  occ. eigenvalues --   -1.44369  -1.36117  -1.33363  -1.20259  -1.18037
 Alpha  occ. eigenvalues --   -1.07227  -1.05819  -1.02930  -0.98799  -0.92488
 Alpha  occ. eigenvalues --   -0.86793  -0.83458  -0.80286  -0.79013  -0.76107
 Alpha  occ. eigenvalues --   -0.71748  -0.67916  -0.67538  -0.67314  -0.65705
 Alpha  occ. eigenvalues --   -0.64949  -0.64374  -0.62418  -0.61619  -0.59861
 Alpha  occ. eigenvalues --   -0.58679  -0.57389  -0.57072  -0.55608  -0.54937
 Alpha  occ. eigenvalues --   -0.53742  -0.53043  -0.52361  -0.50109  -0.49477
 Alpha  occ. eigenvalues --   -0.49130  -0.48544  -0.48319  -0.47325  -0.46179
 Alpha  occ. eigenvalues --   -0.44105  -0.43478  -0.41567  -0.39307  -0.38714
 Alpha virt. eigenvalues --    0.19743   0.20506   0.21932   0.23237   0.24258
 Alpha virt. eigenvalues --    0.24867   0.25973   0.26677   0.28016   0.29523
 Alpha virt. eigenvalues --    0.30484   0.30627   0.30765   0.31238   0.31560
 Alpha virt. eigenvalues --    0.32865   0.33113   0.34159   0.34419   0.34867
 Alpha virt. eigenvalues --    0.35356   0.36087   0.36792   0.37952   0.38940
 Alpha virt. eigenvalues --    0.39371   0.40617   0.41195   0.42775   0.44490
 Alpha virt. eigenvalues --    0.45306   0.46852   0.50271   0.52107   0.53002
 Alpha virt. eigenvalues --    0.57020   0.61186   0.69757   0.73330   0.74511
 Alpha virt. eigenvalues --    0.74634   0.75171   0.76315   0.77015   0.77070
 Alpha virt. eigenvalues --    0.79065   0.80289   0.81571   0.82337   0.83414
 Alpha virt. eigenvalues --    0.85220   0.86052   0.89147   0.90253   0.91347
 Alpha virt. eigenvalues --    0.92617   0.94860   0.95188   0.96270   0.97099
 Alpha virt. eigenvalues --    0.98949   0.99024   0.99691   1.01823   1.03128
 Alpha virt. eigenvalues --    1.04783   1.06728   1.07587   1.09699   1.09923
 Alpha virt. eigenvalues --    1.11104   1.11891   1.12342   1.13155   1.14107
 Alpha virt. eigenvalues --    1.15082   1.16390   1.16704   1.17818   1.18349
 Alpha virt. eigenvalues --    1.18773   1.19353   1.19857   1.20348   1.20898
 Alpha virt. eigenvalues --    1.21637   1.22350   1.23052   1.23188   1.23783
 Alpha virt. eigenvalues --    1.24566   1.24785   1.26061   1.26847   1.28391
 Alpha virt. eigenvalues --    1.30061   1.31475   1.34107   1.36252   1.36973
 Alpha virt. eigenvalues --    1.38674   1.42698   1.45636   1.47210   1.51540
 Alpha virt. eigenvalues --    1.54593   1.55939   1.57227   1.60149   1.64847
 Alpha virt. eigenvalues --    1.65804   1.66864   1.69384   1.72586   1.72745
 Alpha virt. eigenvalues --    1.73871   1.78089   1.79354   1.82158   1.85758
 Alpha virt. eigenvalues --    1.87262   1.88573   1.92232   1.94215   1.94454
 Alpha virt. eigenvalues --    1.98086   1.98877   2.00612   2.06144   2.08960
 Alpha virt. eigenvalues --    2.09218   2.10761   2.13261   2.16484   2.17636
 Alpha virt. eigenvalues --    2.18800   2.20253   2.21320   2.22265   2.23289
 Alpha virt. eigenvalues --    2.25558   2.26477   2.27502   2.28557   2.30904
 Alpha virt. eigenvalues --    2.32027   2.32979   2.34373   2.35311   2.37338
 Alpha virt. eigenvalues --    2.39316   2.39892   2.43217   2.45732   2.46338
 Alpha virt. eigenvalues --    2.46973   2.47533   2.49245   2.51715   2.52779
 Alpha virt. eigenvalues --    2.54662   2.59475   2.62598   2.63647   2.64245
 Alpha virt. eigenvalues --    2.66349   2.67801   2.70302   2.73005   2.75178
 Alpha virt. eigenvalues --    2.75893   2.76621   2.79829   2.81712   2.83114
 Alpha virt. eigenvalues --    2.86032   2.86724   2.89883   2.94104   2.96198
 Alpha virt. eigenvalues --    2.97986   2.99929   3.01241   3.03580   3.04303
 Alpha virt. eigenvalues --    3.08987   3.14593   3.17579   3.23148   3.27065
 Alpha virt. eigenvalues --    3.30350   3.34111   3.44603   3.58205   4.21691
 Alpha virt. eigenvalues --    4.22268   4.29304   4.43366   4.58229   4.61541
 Alpha virt. eigenvalues --    4.64502   4.66163   4.74320   4.83159   4.85023
 Alpha virt. eigenvalues --    4.89238   4.92400   5.00019   5.14083
          Condensed to atoms (all electrons):
              1          2          3          4          5          6
     1  N    7.108682   0.273604  -0.088924  -0.012508   0.000464   0.000008
     2  C    0.273604   5.021530   0.367793  -0.059158   0.004707  -0.000119
     3  C   -0.088924   0.367793   5.169307   0.340069  -0.059307   0.004907
     4  C   -0.012508  -0.059158   0.340069   5.165799   0.340549  -0.060470
     5  C    0.000464   0.004707  -0.059307   0.340549   5.099817   0.354105
     6  C    0.000008  -0.000119   0.004907  -0.060470   0.354105   4.912813
     7  N    0.000000   0.000000  -0.000079   0.004054  -0.066832   0.276267
     8  C   -0.054674   0.365870  -0.063728   0.004756  -0.000085   0.000001
     9  O   -0.005553  -0.049834  -0.008510   0.000254   0.000002   0.000000
    10  C   -0.012974  -0.069027   0.006221  -0.000098   0.000001   0.000000
    11  C   -0.000005   0.004721  -0.000065   0.000001   0.000000   0.000000
    12  O   -0.000012   0.000430  -0.000005   0.000000   0.000000   0.000000
    13  O    0.000000  -0.000025   0.000000   0.000000   0.000000   0.000000
    14  C    0.000000   0.000001   0.000000   0.000000   0.000000   0.000000
    15  C    0.000000   0.000000   0.000000   0.000000   0.000000   0.000000
    16  H    0.344096  -0.042066  -0.001945   0.000495   0.000114   0.000002
    17  H    0.316873  -0.043569  -0.001629  -0.000487  -0.000036   0.000000
    18  H   -0.037934   0.397239  -0.046713  -0.004892  -0.000073  -0.000001
    19  H   -0.001528  -0.034286   0.395848  -0.043283  -0.003464  -0.000054
    20  H    0.005170  -0.039034   0.388642  -0.038509  -0.003322  -0.000019
    21  H    0.000516  -0.003321  -0.040815   0.396086  -0.038121  -0.004209
    22  H    0.002851  -0.006526  -0.044616   0.389975  -0.037952  -0.003048
    23  H    0.000021  -0.000048  -0.003228  -0.041915   0.398725  -0.040974
    24  H   -0.000017  -0.000041  -0.004227  -0.038596   0.397476  -0.036553
    25  H    0.000000  -0.000002  -0.000087  -0.004012  -0.035828   0.401658
    26  H   -0.000009   0.000011  -0.000155   0.000080  -0.054681   0.407749
    27  H    0.000000   0.000000   0.000003  -0.000218   0.006690  -0.039825
    28  H    0.000000   0.000000  -0.000003  -0.000183  -0.005230  -0.036603
    29  H    0.003093  -0.047137  -0.004549  -0.000096  -0.000006   0.000000
    30  H    0.004139  -0.006503   0.000066  -0.000057  -0.000001   0.000000
    31  H    0.000865  -0.001856  -0.000116  -0.000006   0.000000   0.000000
    32  H    0.006103  -0.006974   0.000121  -0.000002   0.000000   0.000000
    33  H    0.000000   0.000000   0.000000   0.000000   0.000000   0.000000
    34  H    0.000000   0.000000   0.000000   0.000000   0.000000   0.000000
    35  H    0.000000   0.000000   0.000000   0.000000   0.000000   0.000000
    36  H    0.000000   0.000000   0.000000   0.000000   0.000000   0.000000
    37  H    0.000000   0.000000   0.000000   0.000000   0.000000   0.000000
              7          8          9         10         11         12
     1  N    0.000000  -0.054674  -0.005553  -0.012974  -0.000005  -0.000012
     2  C    0.000000   0.365870  -0.049834  -0.069027   0.004721   0.000430
     3  C   -0.000079  -0.063728  -0.008510   0.006221  -0.000065  -0.000005
     4  C    0.004054   0.004756   0.000254  -0.000098   0.000001   0.000000
     5  C   -0.066832  -0.000085   0.000002   0.000001   0.000000   0.000000
     6  C    0.276267   0.000001   0.000000   0.000000   0.000000   0.000000
     7  N    7.049429   0.000000   0.000000   0.000000   0.000000   0.000000
     8  C    0.000000   4.812977   0.209772   0.330110  -0.048434   0.005195
     9  O    0.000000   0.209772   8.399770  -0.050159   0.000436  -0.010124
    10  C    0.000000   0.330110  -0.050159   5.315646   0.371462  -0.086287
    11  C    0.000000  -0.048434   0.000436   0.371462   4.108772   0.568101
    12  O    0.000000   0.005195  -0.010124  -0.086287   0.568101   8.156108
    13  O    0.000000   0.001963  -0.000076  -0.070415   0.274244  -0.088021
    14  C    0.000000  -0.000112   0.000005   0.003406  -0.021241   0.003404
    15  C    0.000000   0.000000   0.000000   0.000028   0.002614   0.000520
    16  H    0.000000   0.005125   0.000065  -0.000008   0.000011   0.000000
    17  H    0.000000  -0.009033   0.008877   0.000929  -0.000106   0.000005
    18  H    0.000000  -0.035874   0.002914  -0.002964  -0.000181   0.000009
    19  H    0.000000  -0.006890   0.007628   0.000158  -0.000003   0.000000
    20  H   -0.000002  -0.003165   0.000310  -0.000084  -0.000010  -0.000001
    21  H   -0.000021  -0.000022  -0.000006  -0.000008   0.000000   0.000000
    22  H   -0.000057  -0.000186  -0.000001   0.000001   0.000000   0.000000
    23  H   -0.001728   0.000003  -0.000004   0.000000   0.000000   0.000000
    24  H    0.002174  -0.000008   0.000000   0.000000   0.000000   0.000000
    25  H   -0.038233   0.000000   0.000000   0.000000   0.000000   0.000000
    26  H   -0.056136   0.000000   0.000000   0.000000   0.000000   0.000000
    27  H    0.330958   0.000000   0.000000   0.000000   0.000000   0.000000
    28  H    0.326729   0.000000   0.000000   0.000000   0.000000   0.000000
    29  H    0.000000   0.411803  -0.026561  -0.044152  -0.003147   0.003485
    30  H    0.000000  -0.027963   0.254294  -0.003274  -0.000496   0.000649
    31  H    0.000000  -0.035422   0.002830   0.375252  -0.029179   0.001419
    32  H    0.000000  -0.028817   0.000014   0.381245  -0.033228   0.001264
    33  H    0.000000   0.000008  -0.000003  -0.000040  -0.002524   0.002869
    34  H    0.000000   0.000010   0.000000  -0.000043  -0.002241   0.002875
    35  H    0.000000   0.000000   0.000000   0.000001  -0.000015   0.000009
    36  H    0.000000   0.000000   0.000000  -0.000009  -0.000110  -0.000006
    37  H    0.000000   0.000000   0.000000  -0.000009  -0.000111  -0.000006
             13         14         15         16         17         18
     1  N    0.000000   0.000000   0.000000   0.344096   0.316873  -0.037934
     2  C   -0.000025   0.000001   0.000000  -0.042066  -0.043569   0.397239
     3  C    0.000000   0.000000   0.000000  -0.001945  -0.001629  -0.046713
     4  C    0.000000   0.000000   0.000000   0.000495  -0.000487  -0.004892
     5  C    0.000000   0.000000   0.000000   0.000114  -0.000036  -0.000073
     6  C    0.000000   0.000000   0.000000   0.000002   0.000000  -0.000001
     7  N    0.000000   0.000000   0.000000   0.000000   0.000000   0.000000
     8  C    0.001963  -0.000112   0.000000   0.005125  -0.009033  -0.035874
     9  O   -0.000076   0.000005   0.000000   0.000065   0.008877   0.002914
    10  C   -0.070415   0.003406   0.000028  -0.000008   0.000929  -0.002964
    11  C    0.274244  -0.021241   0.002614   0.000011  -0.000106  -0.000181
    12  O   -0.088021   0.003404   0.000520   0.000000   0.000005   0.000009
    13  O    8.481975   0.162345  -0.040781   0.000000   0.000000   0.000000
    14  C    0.162345   4.802584   0.343212   0.000000   0.000000   0.000000
    15  C   -0.040781   0.343212   5.119364   0.000000   0.000000   0.000000
    16  H    0.000000   0.000000   0.000000   0.359777  -0.026487  -0.003312
    17  H    0.000000   0.000000   0.000000  -0.026487   0.424594   0.006057
    18  H    0.000000   0.000000   0.000000  -0.003312   0.006057   0.546337
    19  H    0.000000   0.000000   0.000000  -0.000065   0.004159   0.004008
    20  H    0.000000   0.000000   0.000000  -0.000041   0.000064   0.000782
    21  H    0.000000   0.000000   0.000000   0.000266   0.000045   0.002458
    22  H    0.000000   0.000000   0.000000   0.003714   0.001243   0.000889
    23  H    0.000000   0.000000   0.000000   0.000021  -0.000007  -0.000004
    24  H    0.000000   0.000000   0.000000  -0.000004   0.000001   0.000019
    25  H    0.000000   0.000000   0.000000   0.000002   0.000000  -0.000003
    26  H    0.000000   0.000000   0.000000  -0.000019   0.000000   0.000000
    27  H    0.000000   0.000000   0.000000   0.000000   0.000000   0.000000
    28  H    0.000000   0.000000   0.000000   0.000000   0.000000   0.000000
    29  H    0.000063  -0.000006   0.000000  -0.000084   0.000011   0.001112
    30  H   -0.000010  -0.000001   0.000000  -0.000078   0.003878  -0.000033
    31  H    0.001585  -0.000115  -0.000006  -0.000030  -0.000033   0.000539
    32  H    0.002065  -0.000137  -0.000006   0.000089  -0.000417   0.000316
    33  H   -0.033220   0.402005  -0.045215   0.000000   0.000000   0.000000
    34  H   -0.033563   0.401802  -0.045420   0.000000   0.000000   0.000000
    35  H    0.002331  -0.036646   0.387290   0.000000   0.000000   0.000000
    36  H    0.001101  -0.035465   0.386417   0.000000   0.000000   0.000000
    37  H    0.001110  -0.035514   0.386349   0.000000   0.000000   0.000000
             19         20         21         22         23         24
     1  N   -0.001528   0.005170   0.000516   0.002851   0.000021  -0.000017
     2  C   -0.034286  -0.039034  -0.003321  -0.006526  -0.000048  -0.000041
     3  C    0.395848   0.388642  -0.040815  -0.044616  -0.003228  -0.004227
     4  C   -0.043283  -0.038509   0.396086   0.389975  -0.041915  -0.038596
     5  C   -0.003464  -0.003322  -0.038121  -0.037952   0.398725   0.397476
     6  C   -0.000054  -0.000019  -0.004209  -0.003048  -0.040974  -0.036553
     7  N    0.000000  -0.000002  -0.000021  -0.000057  -0.001728   0.002174
     8  C   -0.006890  -0.003165  -0.000022  -0.000186   0.000003  -0.000008
     9  O    0.007628   0.000310  -0.000006  -0.000001  -0.000004   0.000000
    10  C    0.000158  -0.000084  -0.000008   0.000001   0.000000   0.000000
    11  C   -0.000003  -0.000010   0.000000   0.000000   0.000000   0.000000
    12  O    0.000000  -0.000001   0.000000   0.000000   0.000000   0.000000
    13  O    0.000000   0.000000   0.000000   0.000000   0.000000   0.000000
    14  C    0.000000   0.000000   0.000000   0.000000   0.000000   0.000000
    15  C    0.000000   0.000000   0.000000   0.000000   0.000000   0.000000
    16  H   -0.000065  -0.000041   0.000266   0.003714   0.000021  -0.000004
    17  H    0.004159   0.000064   0.000045   0.001243  -0.000007   0.000001
    18  H    0.004008   0.000782   0.002458   0.000889  -0.000004   0.000019
    19  H    0.513693  -0.019436   0.003919  -0.001535   0.001840   0.000333
    20  H   -0.019436   0.539788  -0.001820   0.004455   0.000366   0.001650
    21  H    0.003919  -0.001820   0.550806  -0.029812   0.004201  -0.002238
    22  H   -0.001535   0.004455  -0.029812   0.580914  -0.002235   0.004074
    23  H    0.001840   0.000366   0.004201  -0.002235   0.555192  -0.025471
    24  H    0.000333   0.001650  -0.002238   0.004074  -0.025471   0.519881
    25  H   -0.000006   0.000023   0.002085   0.000295   0.004192  -0.003360
    26  H    0.000022  -0.000010   0.000299   0.002371  -0.003643   0.004728
    27  H    0.000000   0.000000   0.000001  -0.000001  -0.000092  -0.000119
    28  H   -0.000002   0.000001   0.000001   0.000010   0.003351  -0.000071
    29  H    0.000222   0.001511   0.000013  -0.000005   0.000001  -0.000001
    30  H   -0.000312  -0.000007   0.000001  -0.000013   0.000000   0.000000
    31  H   -0.000014   0.000010  -0.000001   0.000000   0.000000   0.000000
    32  H   -0.000001  -0.000015   0.000000  -0.000003   0.000000   0.000000
    33  H    0.000000   0.000000   0.000000   0.000000   0.000000   0.000000
    34  H    0.000000   0.000000   0.000000   0.000000   0.000000   0.000000
    35  H    0.000000   0.000000   0.000000   0.000000   0.000000   0.000000
    36  H    0.000000   0.000000   0.000000   0.000000   0.000000   0.000000
    37  H    0.000000   0.000000   0.000000   0.000000   0.000000   0.000000
             25         26         27         28         29         30
     1  N    0.000000  -0.000009   0.000000   0.000000   0.003093   0.004139
     2  C   -0.000002   0.000011   0.000000   0.000000  -0.047137  -0.006503
     3  C   -0.000087  -0.000155   0.000003  -0.000003  -0.004549   0.000066
     4  C   -0.004012   0.000080  -0.000218  -0.000183  -0.000096  -0.000057
     5  C   -0.035828  -0.054681   0.006690  -0.005230  -0.000006  -0.000001
     6  C    0.401658   0.407749  -0.039825  -0.036603   0.000000   0.000000
     7  N   -0.038233  -0.056136   0.330958   0.326729   0.000000   0.000000
     8  C    0.000000   0.000000   0.000000   0.000000   0.411803  -0.027963
     9  O    0.000000   0.000000   0.000000   0.000000  -0.026561   0.254294
    10  C    0.000000   0.000000   0.000000   0.000000  -0.044152  -0.003274
    11  C    0.000000   0.000000   0.000000   0.000000  -0.003147  -0.000496
    12  O    0.000000   0.000000   0.000000   0.000000   0.003485   0.000649
    13  O    0.000000   0.000000   0.000000   0.000000   0.000063  -0.000010
    14  C    0.000000   0.000000   0.000000   0.000000  -0.000006  -0.000001
    15  C    0.000000   0.000000   0.000000   0.000000   0.000000   0.000000
    16  H    0.000002  -0.000019   0.000000   0.000000  -0.000084  -0.000078
    17  H    0.000000   0.000000   0.000000   0.000000   0.000011   0.003878
    18  H   -0.000003   0.000000   0.000000   0.000000   0.001112  -0.000033
    19  H   -0.000006   0.000022   0.000000  -0.000002   0.000222  -0.000312
    20  H    0.000023  -0.000010   0.000000   0.000001   0.001511  -0.000007
    21  H    0.002085   0.000299   0.000001   0.000001   0.000013   0.000001
    22  H    0.000295   0.002371  -0.000001   0.000010  -0.000005  -0.000013
    23  H    0.004192  -0.003643  -0.000092   0.003351   0.000001   0.000000
    24  H   -0.003360   0.004728  -0.000119  -0.000071  -0.000001   0.000000
    25  H    0.547917  -0.037392  -0.003631   0.005338   0.000000   0.000000
    26  H   -0.037392   0.611608  -0.002516  -0.003829   0.000000   0.000000
    27  H   -0.003631  -0.002516   0.405300  -0.026470   0.000000   0.000000
    28  H    0.005338  -0.003829  -0.026470   0.410711   0.000000   0.000000
    29  H    0.000000   0.000000   0.000000   0.000000   0.492728   0.004926
    30  H    0.000000   0.000000   0.000000   0.000000   0.004926   0.337569
    31  H    0.000000   0.000000   0.000000   0.000000   0.001235   0.000111
    32  H    0.000000   0.000000   0.000000   0.000000   0.003215   0.003416
    33  H    0.000000   0.000000   0.000000   0.000000   0.000000   0.000001
    34  H    0.000000   0.000000   0.000000   0.000000   0.000000   0.000000
    35  H    0.000000   0.000000   0.000000   0.000000   0.000000   0.000000
    36  H    0.000000   0.000000   0.000000   0.000000   0.000000   0.000000
    37  H    0.000000   0.000000   0.000000   0.000000   0.000000   0.000000
             31         32         33         34         35         36
     1  N    0.000865   0.006103   0.000000   0.000000   0.000000   0.000000
     2  C   -0.001856  -0.006974   0.000000   0.000000   0.000000   0.000000
     3  C   -0.000116   0.000121   0.000000   0.000000   0.000000   0.000000
     4  C   -0.000006  -0.000002   0.000000   0.000000   0.000000   0.000000
     5  C    0.000000   0.000000   0.000000   0.000000   0.000000   0.000000
     6  C    0.000000   0.000000   0.000000   0.000000   0.000000   0.000000
     7  N    0.000000   0.000000   0.000000   0.000000   0.000000   0.000000
     8  C   -0.035422  -0.028817   0.000008   0.000010   0.000000   0.000000
     9  O    0.002830   0.000014  -0.000003   0.000000   0.000000   0.000000
    10  C    0.375252   0.381245  -0.000040  -0.000043   0.000001  -0.000009
    11  C   -0.029179  -0.033228  -0.002524  -0.002241  -0.000015  -0.000110
    12  O    0.001419   0.001264   0.002869   0.002875   0.000009  -0.000006
    13  O    0.001585   0.002065  -0.033220  -0.033563   0.002331   0.001101
    14  C   -0.000115  -0.000137   0.402005   0.401802  -0.036646  -0.035465
    15  C   -0.000006  -0.000006  -0.045215  -0.045420   0.387290   0.386417
    16  H   -0.000030   0.000089   0.000000   0.000000   0.000000   0.000000
    17  H   -0.000033  -0.000417   0.000000   0.000000   0.000000   0.000000
    18  H    0.000539   0.000316   0.000000   0.000000   0.000000   0.000000
    19  H   -0.000014  -0.000001   0.000000   0.000000   0.000000   0.000000
    20  H    0.000010  -0.000015   0.000000   0.000000   0.000000   0.000000
    21  H   -0.000001   0.000000   0.000000   0.000000   0.000000   0.000000
    22  H    0.000000  -0.000003   0.000000   0.000000   0.000000   0.000000
    23  H    0.000000   0.000000   0.000000   0.000000   0.000000   0.000000
    24  H    0.000000   0.000000   0.000000   0.000000   0.000000   0.000000
    25  H    0.000000   0.000000   0.000000   0.000000   0.000000   0.000000
    26  H    0.000000   0.000000   0.000000   0.000000   0.000000   0.000000
    27  H    0.000000   0.000000   0.000000   0.000000   0.000000   0.000000
    28  H    0.000000   0.000000   0.000000   0.000000   0.000000   0.000000
    29  H    0.001235   0.003215   0.000000   0.000000   0.000000   0.000000
    30  H    0.000111   0.003416   0.000001   0.000000   0.000000   0.000000
    31  H    0.497154  -0.011971   0.000003  -0.000002   0.000000   0.000001
    32  H   -0.011971   0.459276  -0.000003   0.000004   0.000000   0.000001
    33  H    0.000003  -0.000003   0.530705  -0.034413  -0.000454  -0.004074
    34  H   -0.000002   0.000004  -0.034413   0.533059  -0.000437   0.004321
    35  H    0.000000   0.000000  -0.000454  -0.000437   0.527392  -0.024023
    36  H    0.000001   0.000001  -0.004074   0.004321  -0.024023   0.522373
    37  H    0.000001   0.000001   0.004313  -0.004103  -0.024031  -0.025628
             37
     1  N    0.000000
     2  C    0.000000
     3  C    0.000000
     4  C    0.000000
     5  C    0.000000
     6  C    0.000000
     7  N    0.000000
     8  C    0.000000
     9  O    0.000000
    10  C   -0.000009
    11  C   -0.000111
    12  O   -0.000006
    13  O    0.001110
    14  C   -0.035514
    15  C    0.386349
    16  H    0.000000
    17  H    0.000000
    18  H    0.000000
    19  H    0.000000
    20  H    0.000000
    21  H    0.000000
    22  H    0.000000
    23  H    0.000000
    24  H    0.000000
    25  H    0.000000
    26  H    0.000000
    27  H    0.000000
    28  H    0.000000
    29  H    0.000000
    30  H    0.000000
    31  H    0.000001
    32  H    0.000001
    33  H    0.004313
    34  H   -0.004103
    35  H   -0.024031
    36  H   -0.025628
    37  H    0.522998
 Mulliken atomic charges:
              1
     1  N   -0.852346
     2  C   -0.026382
     3  C   -0.304276
     4  C   -0.337626
     5  C   -0.297713
     6  C   -0.135637
     7  N   -0.826525
     8  C    0.166819
     9  O   -0.736343
    10  C   -0.444909
    11  C    0.810735
    12  O   -0.561878
    13  O   -0.662672
    14  C    0.010473
    15  C   -0.494367
    16  H    0.360362
    17  H    0.315069
    18  H    0.169305
    19  H    0.179049
    20  H    0.162704
    21  H    0.159696
    22  H    0.135196
    23  H    0.151435
    24  H    0.180369
    25  H    0.161044
    26  H    0.131522
    27  H    0.329921
    28  H    0.326250
    29  H    0.202329
    30  H    0.429700
    31  H    0.197744
    32  H    0.224444
    33  H    0.180042
    34  H    0.178151
    35  H    0.168582
    36  H    0.175101
    37  H    0.174630
 Sum of Mulliken atomic charges =   0.00000
 Mulliken charges with hydrogens summed into heavy atoms:
              1
     1  N   -0.176915
     2  C    0.142923
     3  C    0.037477
     4  C   -0.042734
     5  C    0.034091
     6  C    0.156930
     7  N   -0.170353
     8  C    0.369149
     9  O   -0.306643
    10  C   -0.022721
    11  C    0.810735
    12  O   -0.561878
    13  O   -0.662672
    14  C    0.368666
    15  C    0.023947
 Sum of Mulliken charges with hydrogens summed into heavy atoms =   0.00000
 DipInt: DoE/N= T F RetVal/Mat= T F Init=T NMatP=  1 IDeriv=0 Min/MaxMlt=  0  4
 Entering OneElI...
 OneElI was handed    33366455 working-precision words.
 Multipole integrals L=0 to 4 MinM= 0 MaxM= 0.
 Requested accuracy = 0.1000D-12
 PrsmSu:  NPrtUS=   1 ThrOK=F IAlg=1 NPAlg=1 LenDen=           0.
 Prism:   IPart=     0 DynPar=F LinDyn=F Incr=          39.
 PRISM was handed    33037759 working-precision words and  3960 shell-pairs
 IPart=  0 NShTot=        3960 NBatch=          49 AvBLen=        80.8
 PrSmSu:  NxtVal=             40.
 Electronic moments (au):
       -120.00000000          0.34252194          1.32935599          0.31663544
      -6952.67681533       -359.91585362       -204.93760009          4.95131673
          7.20384629         -0.21332998      -5112.14710276        -51.38477505
        -92.38670759        147.79001132        372.93869247       2110.60266218
        -87.16802039        -32.86333830       -133.41705689       -129.92585396
    -839418.87263680      -2750.35010911      -1233.93130988      24173.30195295
       1481.14610505       -872.29609735       -256.30983968         63.73186959
         38.82231987     -15092.45887620      -8357.20070442       -884.71536887
        512.38055883       -166.79455752       -127.57067311
 Electronic spatial extent (au):  <R**2>=           7517.5303
 DipInt: DoE/N= F T RetVal/Mat= T F Init=T NMatP=  1 IDeriv=0 Min/MaxMlt=  0  4
 Nuclear    moments (au):
        120.00000000          0.00000000          0.00000000          0.00000000
       6893.61775549        281.53400396        139.99150663          0.00000000
          0.00000000          0.00000000       4983.13378390         50.06163541
        113.58187433       -140.52138391       -296.78838470      -2022.14471436
         77.18583044         33.38485636        128.74293822        109.34075674
     817743.74794381       1476.63522480        637.64171446     -22730.92492206
       -336.18430894        889.28053690        242.46149407        -26.56632165
        -46.33504482      10570.34290958       4255.92644245        573.98897252
       -743.64691595        215.15677730        142.79513850
 Total      moments (au):
          0.00000000          0.34252194          1.32935599          0.31663544
        -59.05905983        -78.38184967        -64.94609346          4.95131673
          7.20384629         -0.21332998       -129.01331885         -1.32313963
         21.19516675          7.26862741         76.15030777         88.45794781
         -9.98218996          0.52151807         -4.67411867        -20.58509722
     -21675.12469299      -1273.71488431       -596.28959542       1442.37703089
       1144.96179610         16.98443955        -13.84834561         37.16554794
         -7.51272495      -4522.11596661      -4101.27426197       -310.72639634
       -231.26635712         48.36221978         15.22446538
 Traceless Quadrup. (au):
          8.40327449        -10.91951535          2.51624086          4.95131673
          7.20384629         -0.21332998
 Charge=              0.0000 electrons
 Dipole moment (field-independent basis, Debye):
    X=              0.8706    Y=              3.3789    Z=              0.8048  Tot=              3.5809
 Quadrupole moment (field-independent basis, Debye-Ang):
   XX=            -79.4365   YY=           -105.4263   ZZ=            -87.3547
   XY=              6.6597   XZ=              9.6894   YZ=             -0.2869
 Traceless Quadrupole moment (field-independent basis, Debye-Ang):
   XX=             11.3027   YY=            -14.6871   ZZ=              3.3844
   XY=              6.6597   XZ=              9.6894   YZ=             -0.2869
 Octapole moment (field-independent basis, Debye-Ang**2):
  XXX=            -91.8267  YYY=             -0.9418  ZZZ=             15.0859  XYY=              5.1735
  XXY=             54.2009  XXZ=             62.9610  XZZ=             -7.1049  YZZ=              0.3712
  YYZ=             -3.3269  XYZ=            -14.6517
 Hexadecapole moment (field-independent basis, Debye-Ang**3):
 XXXX=          -8163.8908 YYYY=           -479.7421 ZZZZ=           -224.5912 XXXY=            543.2683
 XXXZ=            431.2475 YYYX=              6.3972 YYYZ=             -5.2160 ZZZX=             13.9983
 ZZZY=             -2.8297 XXYY=          -1703.2456 XXZZ=          -1544.7364 YYZZ=           -117.0345
 XXYZ=            -87.1060 YYXZ=             18.2155 ZZXY=              5.7343
 N-N= 1.031483036574D+03 E-N=-3.761856487425D+03  KE= 7.237908837290D+02
 Entering OneElI...
 OneElI was handed    33220539 working-precision words.
 Calculate electrostatic properties
    NBasis =   269  MinDer = 0  MaxDer = 0
    NGrid  =    37  NMatD  =   1
 Requested accuracy = 0.1000D-12
 PrsmSu:  NPrtUS=   1 ThrOK=F IAlg=1 NPAlg=1 LenDen=           0.
 Prism:   IPart=     0 DynPar=F LinDyn=F Incr=         512.
 PRISM was handed    32923816 working-precision words and  3496 shell-pairs
 IPart=  0 NShTot=      129352 NBatch=        3496 AvBLen=        37.0
 PrSmSu:  NxtVal=            513.
 --------------------------------------------------------
       Center         ----      EFG at Nuclei      ----
                      3XX-RR        3YY-RR        3ZZ-RR
 --------------------------------------------------------
     1   Atom        0.411520      0.155478     -0.566998
     2   Atom        0.106822     -0.017960     -0.088863
     3   Atom       -0.005823     -0.013707      0.019530
     4   Atom        0.025178     -0.021523     -0.003655
     5   Atom       -0.000782     -0.019824      0.020606
     6   Atom       -0.069397     -0.021150      0.090547
     7   Atom       -0.521813      0.207268      0.314545
     8   Atom        0.133335      0.055108     -0.188443
     9   Atom        1.967243     -0.160620     -1.806623
    10   Atom       -0.067050      0.039912      0.027138
    11   Atom        0.144528      0.370795     -0.515323
    12   Atom        1.796252     -0.750895     -1.045356
    13   Atom       -1.783618      0.559664      1.223953
    14   Atom       -0.302882      0.038433      0.264449
    15   Atom       -0.029056     -0.004761      0.033817
    16   Atom       -0.272179      0.096875      0.175304
    17   Atom        0.213177      0.015513     -0.228690
    18   Atom        0.148287      0.034140     -0.182427
    19   Atom        0.148951      0.036018     -0.184969
    20   Atom        0.145664     -0.031893     -0.113771
    21   Atom        0.147223      0.035657     -0.182880
    22   Atom        0.141326     -0.033660     -0.107667
    23   Atom        0.146249      0.038925     -0.185175
    24   Atom        0.149150     -0.034360     -0.114790
    25   Atom        0.142288      0.036586     -0.178874
    26   Atom        0.145316     -0.035029     -0.110288
    27   Atom       -0.209035     -0.005465      0.214500
    28   Atom        0.177516      0.124722     -0.302238
    29   Atom        0.148974     -0.033440     -0.115534
    30   Atom        0.255423     -0.099179     -0.156243
    31   Atom        0.143708      0.037260     -0.180968
    32   Atom        0.148023     -0.033309     -0.114714
    33   Atom        0.138714      0.038317     -0.177031
    34   Atom        0.137711     -0.029965     -0.107746
    35   Atom       -0.169134      0.012270      0.156864
    36   Atom        0.151588     -0.036159     -0.115429
    37   Atom        0.151340      0.034462     -0.185802
 --------------------------------------------------------
                        XY            XZ            YZ
 --------------------------------------------------------
     1   Atom       -0.756983      0.024887     -0.028923
     2   Atom       -0.005754     -0.010977     -0.136474
     3   Atom       -0.009666     -0.008535     -0.008255
     4   Atom        0.001012      0.001711     -0.005187
     5   Atom        0.000987     -0.005240      0.019657
     6   Atom        0.126395     -0.013315      0.000361
     7   Atom        0.054221      0.004300      0.767653
     8   Atom        0.036886      0.003368      0.247682
     9   Atom       -0.064330     -0.014049     -0.180358
    10   Atom       -0.064829      0.014384      0.015958
    11   Atom        0.183575     -0.018877     -0.076254
    12   Atom        0.150863      0.007170     -0.033576
    13   Atom       -0.190099      0.028188      0.059167
    14   Atom       -0.320901      0.029569      0.019081
    15   Atom        0.031381     -0.002215      0.003422
    16   Atom       -0.256353      0.015133      0.001192
    17   Atom       -0.039084     -0.000857      0.279201
    18   Atom       -0.006143      0.004074      0.192394
    19   Atom        0.001064      0.004694      0.194883
    20   Atom       -0.005952     -0.008735     -0.226195
    21   Atom       -0.002636      0.005992      0.201084
    22   Atom        0.000569     -0.006174     -0.227678
    23   Atom       -0.003685      0.004993      0.202442
    24   Atom       -0.008319     -0.010114     -0.223231
    25   Atom       -0.000806      0.005955      0.200649
    26   Atom       -0.002496     -0.008735     -0.224914
    27   Atom       -0.286430      0.013964      0.043353
    28   Atom        0.003254      0.000023      0.245804
    29   Atom       -0.001043     -0.007492     -0.211034
    30   Atom       -0.018317     -0.013480     -0.325390
    31   Atom       -0.004770      0.006775      0.202488
    32   Atom       -0.002028     -0.006839     -0.220349
    33   Atom       -0.012737      0.002504      0.196434
    34   Atom       -0.015429     -0.003211     -0.219088
    35   Atom       -0.206292      0.018624      0.013024
    36   Atom       -0.001584     -0.008642     -0.226093
    37   Atom        0.001809      0.005513      0.200756
 --------------------------------------------------------


 ---------------------------------------------------------------------------------
              Nuclear Quadrupole in Principal Axis System
 ---------------------------------------------------------------------------------

       Atom             a.u.   MegaHertz   Gauss  10(-4) cm-1        Axes

              Baa    -0.5683   -21.918    -7.821    -7.311  0.0284  0.0696  0.9972
     1 N(14)  Bbb    -0.4838   -18.659    -6.658    -6.224  0.6452  0.7607 -0.0715
              Bcc     1.0521    40.577    14.479    13.535  0.7635 -0.6454  0.0233
 
              Baa    -0.1949   -26.155    -9.333    -8.724  0.0404  0.6110  0.7906
     2 C(13)  Bbb     0.0874    11.723     4.183     3.910 -0.1076  0.7893 -0.6045
              Bcc     0.1075    14.432     5.150     4.814  0.9934  0.0606 -0.0976
 
              Baa    -0.0234    -3.136    -1.119    -1.046  0.5605  0.7854  0.2627
     3 C(13)  Bbb     0.0004     0.058     0.021     0.019  0.7947 -0.5993  0.0961
              Bcc     0.0229     3.077     1.098     1.026 -0.2329 -0.1549  0.9601
 
              Baa    -0.0230    -3.081    -1.099    -1.028 -0.0296  0.9647  0.2618
     4 C(13)  Bbb    -0.0023    -0.312    -0.111    -0.104 -0.0502 -0.2630  0.9635
              Bcc     0.0253     3.394     1.211     1.132  0.9983  0.0153  0.0562
 
              Baa    -0.0281    -3.773    -1.346    -1.258 -0.1063  0.9181 -0.3819
     5 C(13)  Bbb    -0.0011    -0.154    -0.055    -0.051  0.9832  0.1544  0.0973
              Bcc     0.0293     3.926     1.401     1.310 -0.1483  0.3651  0.9191
 
              Baa    -0.1744   -23.398    -8.349    -7.805  0.7707 -0.6359  0.0396
     6 C(13)  Bbb     0.0782    10.487     3.742     3.498  0.5195  0.6632  0.5387
              Bcc     0.0962    12.911     4.607     4.307 -0.3689 -0.3947  0.8415
 
              Baa    -0.5531   -21.333    -7.612    -7.116  0.7712 -0.4787  0.4197
[...]
 8488 Fit       0.007294
 8489 Fit       0.005529
 8490 Fit       0.003213
 8491 Fit       0.011544
 8492 Fit       0.010342
 8493 Fit       0.009407
 8494 Fit       0.008361
 8495 Fit       0.006942
 8496 Fit       0.004943
 8497 Fit       0.009221
 8498 Fit       0.008564
 8499 Fit       0.007846
 8500 Fit       0.006709
 8501 Fit       0.004856
 8502 Fit       0.001944
 8503 Fit       0.006087
 8504 Fit       0.005734
 8505 Fit       0.004578
 8506 Fit       0.002190
 8507 Fit       0.002824
 8508 Fit       0.002653
 8509 Fit       0.000905
 8510 Fit      -0.000625
 8511 Fit      -0.000852
 8512 Fit      -0.007960
 8513 Fit      -0.001995
 8514 Fit      -0.015057
 8515 Fit      -0.009362
 8516 Fit      -0.004300
 8517 Fit       0.000236
 8518 Fit       0.004386
 8519 Fit      -0.011104
 8520 Fit      -0.006815
 8521 Fit      -0.002773
 8522 Fit       0.000989
 8523 Fit       0.004520
 8524 Fit       0.007921
 8525 Fit      -0.011086
 8526 Fit      -0.008278
 8527 Fit      -0.005101
 8528 Fit      -0.001854
 8529 Fit       0.001314
 8530 Fit       0.004368
 8531 Fit       0.007345
 8532 Fit      -0.006580
 8533 Fit      -0.007373
 8534 Fit      -0.006862
 8535 Fit      -0.005348
 8536 Fit      -0.003206
 8537 Fit      -0.000750
 8538 Fit       0.001813
 8539 Fit       0.004378
 8540 Fit       0.006913
 8541 Fit       0.009452
 8542 Fit      -0.000346
 8543 Fit      -0.002035
 8544 Fit      -0.003015
 8545 Fit      -0.003007
 8546 Fit      -0.002075
 8547 Fit      -0.000468
 8548 Fit       0.001537
 8549 Fit       0.003724
 8550 Fit       0.005963
 8551 Fit       0.008192
 8552 Fit       0.010383
 8553 Fit       0.002020
 8554 Fit       0.000942
 8555 Fit       0.000098
 8556 Fit      -0.000111
 8557 Fit       0.000449
 8558 Fit       0.001667
 8559 Fit       0.003319
 8560 Fit       0.005187
 8561 Fit       0.007107
 8562 Fit       0.008955
 8563 Fit       0.010583
 8564 Fit       0.009859
 8565 Fit       0.009870
 8566 Fit       0.008950
 8567 Fit       0.007484
 8568 Fit       0.003653
 8569 Fit       0.003138
 8570 Fit       0.002502
 8571 Fit       0.002067
 8572 Fit       0.002188
 8573 Fit       0.002986
 8574 Fit       0.004321
 8575 Fit       0.005939
 8576 Fit       0.007581
 8577 Fit       0.008990
 8578 Fit       0.008350
 8579 Fit       0.008161
 8580 Fit       0.007121
 8581 Fit       0.005919
 8582 Fit       0.005030
 8583 Fit       0.004439
 8584 Fit       0.003957
 8585 Fit       0.003625
 8586 Fit       0.003812
 8587 Fit       0.004732
 8588 Fit       0.006144
 8589 Fit       0.007539
 8590 Fit       0.007064
 8591 Fit       0.006608
 8592 Fit       0.005545
 8593 Fit       0.004894
 8594 Fit       0.005021
 8595 Fit       0.006134
 8596 Fit       0.005926
 8597 Fit      -0.002892
 8598 Fit      -0.003576
 8599 Fit      -0.004816
 8600 Fit      -0.005306
 8601 Fit      -0.005717
 8602 Fit      -0.004909
 8603 Fit      -0.005922
 8604 Fit      -0.007044
 8605 Fit      -0.004782
 8606 Fit      -0.004247
 8607 Fit      -0.005065
 8608 Fit      -0.007022
 8609 Fit      -0.006904
 8610 Fit      -0.004389
 8611 Fit      -0.003289
 8612 Fit      -0.003321
 8613 Fit      -0.004246
 8614 Fit      -0.005835
 8615 Fit      -0.005693
 8616 Fit      -0.003599
 8617 Fit      -0.002384
 8618 Fit      -0.001999
 8619 Fit      -0.002294
 8620 Fit      -0.003054
 8621 Fit      -0.003985
 8622 Fit      -0.002963
 8623 Fit      -0.001782
 8624 Fit      -0.001044
 8625 Fit      -0.000842
 8626 Fit      -0.001068
 8627 Fit      -0.001482
 8628 Fit      -0.001725
 8629 Fit      -0.001358
 8630 Fit      -0.000782
 8631 Fit      -0.000662
 8632 Fit      -0.000194
 8633 Fit       0.000153
 8634 Fit       0.000224
 8635 Fit       0.000111
 8636 Fit       0.000064
 8637 Fit       0.000398
 8638 Fit       0.004666
 8639 Fit       0.002713
 8640 Fit       0.001495
 8641 Fit       0.001109
 8642 Fit       0.001136
 8643 Fit       0.001194
 8644 Fit       0.001200
 8645 Fit       0.001324
 8646 Fit       0.004007
 8647 Fit       0.002769
 8648 Fit       0.002217
 8649 Fit       0.002081
 8650 Fit       0.002152
 8651 Fit       0.003482
 8652 Fit       0.002949
 8653 Fit      -0.002700
 8654 Fit      -0.004803
 8655 Fit      -0.002949
 8656 Fit      -0.001088
 8657 Fit      -0.000978
 8658 Fit      -0.002645
 8659 Fit      -0.004571
 8660 Fit      -0.007443
 8661 Fit      -0.005795
 8662 Fit      -0.003347
 8663 Fit      -0.001123
 8664 Fit       0.000312
 8665 Fit       0.000882
 8666 Fit       0.000496
 8667 Fit      -0.000832
 8668 Fit      -0.002811
 8669 Fit      -0.004976
 8670 Fit      -0.006776
 8671 Fit      -0.007721
 8672 Fit      -0.010817
 8673 Fit      -0.009284
 8674 Fit      -0.006711
 8675 Fit      -0.003821
 8676 Fit      -0.001343
 8677 Fit       0.000398
 8678 Fit       0.002366
 8679 Fit       0.001845
 8680 Fit       0.000639
 8681 Fit      -0.001108
 8682 Fit      -0.003216
 8683 Fit      -0.005479
 8684 Fit      -0.007641
 8685 Fit      -0.009428
 8686 Fit      -0.010643
 8687 Fit      -0.011174
 8688 Fit      -0.015180
 8689 Fit      -0.013730
 8690 Fit      -0.010847
 8691 Fit      -0.007213
 8692 Fit      -0.003729
 8693 Fit       0.003608
 8694 Fit       0.002637
 8695 Fit       0.001117
 8696 Fit      -0.000817
 8697 Fit      -0.003063
 8698 Fit      -0.005517
 8699 Fit      -0.008035
 8700 Fit      -0.010411
 8701 Fit      -0.012416
 8702 Fit      -0.013895
 8703 Fit      -0.014859
 8704 Fit      -0.015366
 8705 Fit      -0.020824
 8706 Fit      -0.019662
 8707 Fit      -0.016281
 8708 Fit      -0.011508
 8709 Fit      -0.006722
 8710 Fit       0.004028
 8711 Fit       0.002324
 8712 Fit       0.000259
 8713 Fit      -0.002113
 8714 Fit      -0.004754
 8715 Fit      -0.007605
 8716 Fit      -0.010548
 8717 Fit      -0.013388
 8718 Fit      -0.015858
 8719 Fit      -0.017719
 8720 Fit      -0.018931
 8721 Fit      -0.019749
 8722 Fit      -0.020479
 8723 Fit       0.001410
 8724 Fit      -0.001088
 8725 Fit      -0.003865
 8726 Fit      -0.006927
 8727 Fit      -0.010247
 8728 Fit      -0.013735
 8729 Fit      -0.017199
 8730 Fit      -0.020331
 8731 Fit      -0.022758
 8732 Fit      -0.024226
 8733 Fit      -0.024871
 8734 Fit      -0.025358
 8735 Fit      -0.026461
 8736 Fit      -0.003689
 8737 Fit      -0.007201
 8738 Fit      -0.011115
 8739 Fit      -0.015416
 8740 Fit      -0.019988
 8741 Fit      -0.011734
 8742 Fit      -0.016845
 8743 Fit      -0.022602
 8744 Fit      -0.000134
 8745 Fit      -0.003108
 8746 Fit      -0.006753
 8747 Fit       0.004258
 8748 Fit       0.002277
 8749 Fit       0.000005
 8750 Fit      -0.002720
 8751 Fit      -0.006103
 8752 Fit      -0.010430
 8753 Fit      -0.016135
 8754 Fit       0.005320
 8755 Fit       0.003865
 8756 Fit       0.002186
 8757 Fit       0.000195
 8758 Fit      -0.002228
 8759 Fit      -0.005250
 8760 Fit      -0.009113
 8761 Fit      -0.014185
 8762 Fit      -0.021063
 8763 Fit       0.005126
 8764 Fit       0.004067
 8765 Fit       0.002745
 8766 Fit       0.001126
 8767 Fit      -0.000867
 8768 Fit      -0.003352
 8769 Fit      -0.006504
 8770 Fit      -0.010582
 8771 Fit      -0.015995
 8772 Fit       0.004793
 8773 Fit       0.004025
 8774 Fit       0.002952
 8775 Fit       0.001565
 8776 Fit      -0.000191
 8777 Fit      -0.002417
 8778 Fit      -0.005260
 8779 Fit      -0.008946
 8780 Fit      -0.013823
 8781 Fit      -0.020461
 8782 Fit       0.004208
 8783 Fit       0.003478
 8784 Fit       0.002437
 8785 Fit       0.001050
 8786 Fit      -0.000751
 8787 Fit      -0.003078
 8788 Fit      -0.006097
 8789 Fit      -0.010055
 8790 Fit      -0.015337
 8791 Fit       0.003677
 8792 Fit       0.002945
 8793 Fit       0.001912
 8794 Fit       0.000520
 8795 Fit      -0.001312
 8796 Fit      -0.003697
 8797 Fit      -0.006798
 8798 Fit      -0.010845
 8799 Fit      -0.016170
 8800 Fit       0.003684
 8801 Fit       0.003134
 8802 Fit       0.002344
 8803 Fit       0.001218
 8804 Fit      -0.000329
 8805 Fit      -0.002398
 8806 Fit      -0.005119
 8807 Fit      -0.008650
 8808 Fit      -0.013170
 8809 Fit       0.003042
 8810 Fit       0.002499
 8811 Fit       0.001666
 8812 Fit       0.000443
 8813 Fit      -0.001262
 8814 Fit      -0.003541
 8815 Fit      -0.006472
 8816 Fit      -0.010049
 8817 Fit       0.002247
 8818 Fit       0.002028
 8819 Fit       0.001371
 8820 Fit       0.000244
 8821 Fit      -0.001423
 8822 Fit      -0.003659
 8823 Fit      -0.006347
 8824 Fit      -0.009000
 8825 Fit       0.000768
 8826 Fit       0.001082
 8827 Fit       0.000518
 8828 Fit      -0.000817
 8829 Fit      -0.002797
 8830 Fit      -0.004878
 8831 Fit      -0.005685
 8832 Fit      -0.000999
 8833 Fit      -0.000160
 8834 Fit      -0.000389
 8835 Fit      -0.001934
 8836 Fit      -0.002878
 8837 Fit      -0.001231
 8838 Fit       0.002699
 8839 Fit       0.002705
 8840 Fit       0.003140
 8841 Fit       0.003156
 8842 Fit       0.002807
 8843 Fit       0.002756
 8844 Fit       0.003251
 8845 Fit       0.003592
 8846 Fit       0.003693
 8847 Fit       0.003590
 8848 Fit       0.003395
 8849 Fit       0.002806
 8850 Fit       0.003297
 8851 Fit       0.003721
 8852 Fit       0.004008
 8853 Fit       0.004126
 8854 Fit       0.004091
 8855 Fit       0.003966
 8856 Fit       0.003848
 8857 Fit       0.003830
 8858 Fit       0.002524
 8859 Fit       0.002989
 8860 Fit       0.003475
 8861 Fit       0.003908
 8862 Fit       0.004235
 8863 Fit       0.004431
 8864 Fit       0.004490
 8865 Fit       0.004433
 8866 Fit       0.004308
 8867 Fit       0.004201
 8868 Fit       0.004233
 8869 Fit       0.002802
 8870 Fit       0.003291
 8871 Fit       0.003765
 8872 Fit       0.004174
 8873 Fit       0.004486
 8874 Fit       0.004680
 8875 Fit       0.004755
 8876 Fit       0.004723
 8877 Fit       0.004615
 8878 Fit       0.004489
 8879 Fit       0.004439
 8880 Fit       0.004619
 8881 Fit       0.002579
 8882 Fit       0.003040
 8883 Fit       0.003515
 8884 Fit       0.003958
 8885 Fit       0.004336
 8886 Fit       0.004627
 8887 Fit       0.004820
 8888 Fit       0.004910
 8889 Fit       0.004907
 8890 Fit       0.004831
 8891 Fit       0.004719
 8892 Fit       0.004630
 8893 Fit       0.004658
 8894 Fit       0.002606
 8895 Fit       0.003076
 8896 Fit       0.003547
 8897 Fit       0.003983
 8898 Fit       0.004356
 8899 Fit       0.004648
 8900 Fit       0.004848
 8901 Fit       0.004955
 8902 Fit       0.004975
 8903 Fit       0.004929
 8904 Fit       0.004848
 8905 Fit       0.004781
 8906 Fit       0.004805
 8907 Fit       0.003053
 8908 Fit       0.003502
 8909 Fit       0.003916
 8910 Fit       0.004274
 8911 Fit       0.004560
 8912 Fit       0.004765
 8913 Fit       0.004890
 8914 Fit       0.004942
 8915 Fit       0.004939
 8916 Fit       0.004911
 8917 Fit       0.004903
 8918 Fit       0.004978
 8919 Fit       0.002708
 8920 Fit       0.003137
 8921 Fit       0.003549
 8922 Fit       0.003921
 8923 Fit       0.004237
 8924 Fit       0.004486
 8925 Fit       0.004666
 8926 Fit       0.004780
 8927 Fit       0.004846
 8928 Fit       0.004889
 8929 Fit       0.004951
 8930 Fit       0.005093
 8931 Fit       0.003076
 8932 Fit       0.003460
 8933 Fit       0.003805
 8934 Fit       0.004097
 8935 Fit       0.004329
 8936 Fit       0.004505
 8937 Fit       0.004640
 8938 Fit       0.004763
 8939 Fit       0.004925
 8940 Fit       0.005208
 8941 Fit       0.003142
 8942 Fit       0.003477
 8943 Fit       0.003776
 8944 Fit       0.004031
 8945 Fit       0.004247
 8946 Fit       0.004449
 8947 Fit       0.004688
 8948 Fit       0.005049
 8949 Fit       0.003176
 8950 Fit       0.003460
 8951 Fit       0.003730
 8952 Fit       0.003994
 8953 Fit       0.004288
 8954 Fit       0.004690
 8955 Fit       0.000991
 8956 Fit       0.000474
 8957 Fit       0.001134
 8958 Fit       0.001432
 8959 Fit       0.001362
 8960 Fit       0.001082
 8961 Fit       0.000501
 8962 Fit      -0.000253
 8963 Fit       0.000663
 8964 Fit       0.001428
 8965 Fit       0.001770
 8966 Fit       0.001790
 8967 Fit       0.001706
 8968 Fit       0.000026
 8969 Fit      -0.000593
 8970 Fit      -0.001229
 8971 Fit       0.000011
 8972 Fit       0.001106
 8973 Fit       0.001802
 8974 Fit       0.002117
 8975 Fit       0.002157
 8976 Fit       0.002049
 8977 Fit       0.001925
 8978 Fit      -0.001641
 8979 Fit      -0.001982
 8980 Fit      -0.002436
 8981 Fit      -0.000689
 8982 Fit       0.000767
 8983 Fit       0.001729
 8984 Fit       0.002258
 8985 Fit       0.002467
 8986 Fit       0.002459
 8987 Fit       0.002321
 8988 Fit       0.002143
 8989 Fit       0.002023
 8990 Fit      -0.003863
 8991 Fit      -0.003789
 8992 Fit      -0.003741
 8993 Fit      -0.001278
 8994 Fit       0.000569
 8995 Fit       0.001720
 8996 Fit       0.002358
 8997 Fit       0.002655
 8998 Fit       0.002723
 8999 Fit       0.002637
 9000 Fit       0.002456
 9001 Fit       0.002246
 9002 Fit       0.002083
 9003 Fit      -0.006037
 9004 Fit      -0.004797
 9005 Fit      -0.001524
 9006 Fit       0.000611
 9007 Fit       0.001807
 9008 Fit       0.002435
 9009 Fit       0.002740
 9010 Fit       0.002846
 9011 Fit       0.002811
 9012 Fit       0.002677
 9013 Fit       0.002478
 9014 Fit       0.002259
 9015 Fit       0.002074
 9016 Fit      -0.008453
 9017 Fit      -0.000863
 9018 Fit       0.001266
 9019 Fit       0.002195
 9020 Fit       0.002595
 9021 Fit       0.002769
 9022 Fit       0.002818
 9023 Fit       0.002773
 9024 Fit       0.002649
 9025 Fit       0.002465
 9026 Fit       0.002250
 9027 Fit       0.002044
 9028 Fit       0.002142
 9029 Fit       0.002519
 9030 Fit       0.002574
 9031 Fit       0.002580
 9032 Fit       0.002572
 9033 Fit       0.002530
 9034 Fit       0.002438
 9035 Fit       0.002296
 9036 Fit       0.002119
 9037 Fit       0.001933
 9038 Fit       0.002264
 9039 Fit       0.002082
 9040 Fit       0.002016
 9041 Fit       0.002017
 9042 Fit       0.002020
 9043 Fit       0.001987
 9044 Fit       0.001909
 9045 Fit       0.001794
 9046 Fit       0.001664
 9047 Fit       0.000751
 9048 Fit       0.000816
 9049 Fit       0.000963
 9050 Fit       0.001132
 9051 Fit       0.001264
 9052 Fit       0.001335
 9053 Fit       0.001346
 9054 Fit       0.001319
 9055 Fit      -0.001863
 9056 Fit      -0.001017
 9057 Fit      -0.000389
 9058 Fit       0.000084
 9059 Fit       0.000420
 9060 Fit       0.000646
 9061 Fit      -0.004785
 9062 Fit      -0.002974
 9063 Fit      -0.001779
 9064 Fit      -0.000948
 9065 Fit       0.000938
 9066 Fit       0.001372
 9067 Fit       0.001703
 9068 Fit       0.001952
 9069 Fit       0.002138
 9070 Fit       0.002283
 9071 Fit      -0.001382
 9072 Fit      -0.000212
 9073 Fit       0.000637
 9074 Fit       0.001266
 9075 Fit       0.001732
 9076 Fit       0.002073
 9077 Fit       0.002313
 9078 Fit       0.002474
 9079 Fit       0.002580
 9080 Fit       0.002652
 9081 Fit       0.002720
 9082 Fit       0.002810
 9083 Fit      -0.004684
 9084 Fit      -0.002392
 9085 Fit      -0.000800
 9086 Fit       0.000339
 9087 Fit       0.001168
 9088 Fit       0.001774
 9089 Fit       0.002210
 9090 Fit       0.002511
 9091 Fit       0.002705
 9092 Fit       0.002816
 9093 Fit       0.002869
 9094 Fit       0.002892
 9095 Fit       0.002916
 9096 Fit       0.002975
 9097 Fit      -0.006384
 9098 Fit      -0.003535
 9099 Fit      -0.001538
 9100 Fit      -0.000105
 9101 Fit       0.000937
 9102 Fit       0.001697
 9103 Fit       0.002243
 9104 Fit       0.002622
 9105 Fit       0.002866
 9106 Fit       0.003004
 9107 Fit       0.003064
 9108 Fit       0.003072
 9109 Fit       0.003062
 9110 Fit       0.003069
 9111 Fit       0.003136
 9112 Fit       0.003317
 9113 Fit      -0.007020
 9114 Fit      -0.003973
 9115 Fit      -0.001762
 9116 Fit      -0.000155
 9117 Fit       0.001012
 9118 Fit       0.001850
 9119 Fit       0.002436
 9120 Fit       0.002825
 9121 Fit       0.003057
 9122 Fit       0.003168
 9123 Fit       0.003194
 9124 Fit       0.003172
 9125 Fit       0.003143
 9126 Fit       0.003152
 9127 Fit       0.003240
 9128 Fit       0.003431
 9129 Fit      -0.004092
 9130 Fit      -0.001898
 9131 Fit      -0.000216
 9132 Fit       0.001030
 9133 Fit       0.001922
 9134 Fit       0.002532
 9135 Fit       0.002917
 9136 Fit       0.003124
 9137 Fit       0.003199
 9138 Fit       0.003186
 9139 Fit       0.003130
 9140 Fit       0.003071
 9141 Fit       0.003027
 9142 Fit       0.002963
 9143 Fit       0.002743
 9144 Fit      -0.003481
 9145 Fit      -0.001630
 9146 Fit      -0.000015
 9147 Fit       0.001225
 9148 Fit       0.002098
 9149 Fit       0.002654
 9150 Fit       0.002952
 9151 Fit       0.003056
 9152 Fit       0.003023
 9153 Fit       0.002904
 9154 Fit       0.002709
 9155 Fit       0.002367
 9156 Fit       0.001690
 9157 Fit       0.000407
 9158 Fit      -0.002122
 9159 Fit      -0.001018
 9160 Fit       0.000422
 9161 Fit       0.001598
 9162 Fit       0.002340
 9163 Fit       0.002676
 9164 Fit       0.002695
 9165 Fit       0.002464
 9166 Fit       0.001944
 9167 Fit       0.000955
 9168 Fit      -0.000571
 9169 Fit      -0.001977
 9170 Fit      -0.000134
 9171 Fit       0.000833
 9172 Fit       0.001862
 9173 Fit       0.002117
 9174 Fit       0.001575
 9175 Fit       0.000398
 9176 Fit       0.001214
 -----------------------------------------------------------------
 Leave Link  602 at Tue Apr  1 15:59:49 2014, MaxMem=   33554432 cpu:       1.5

 Test job not archived.
 1\1\GINC-HANA\FOpt\RHF\6-31G(d)\C10H22N2O3\PIEONG\01-Apr-2014\0\\#HF/6
 -31G* SCF=tight Test Pop=MK iop(6/33=2) iop(6/42=6) opt # iop(6/50=1)\
 \remark line goes here\\0,1\N,-1.7248173954,0.6479320876,-0.5683355404
 \C,-0.6811818437,-0.3663064897,-0.7264432795\C,0.2430751088,-0.1337522
 027,-1.928820534\C,-0.4752589422,-0.1180882381,-3.2800974393\C,0.48582
 73674,0.0455605579,-4.4588995815\C,-0.2220902663,0.075848611,-5.809477
 9963\N,0.7448147366,0.1946663069,-6.8902651091\C,0.1200980198,-0.43181
 08728,0.5837505855\O,0.5308388244,0.8530291173,0.9762438964\C,-0.67341
 08641,-1.1077630677,1.7077686444\C,0.1395537514,-1.1144629182,2.979559
 7627\O,1.0728907375,-1.8288582871,3.1647730927\O,-0.2902682351,-0.2276
 945664,3.8625862061\C,0.4455794337,-0.1034240418,5.0749333503\C,-0.220
 2799459,0.9764754771,5.9012914596\H,-2.5248121007,0.4419651241,-1.1321
 57455\H,-1.3883345228,1.5464949507,-0.8579731371\H,-1.1809792439,-1.32
 23102142,-0.8589907025\H,0.7785050234,0.8018003587,-1.7820149527\H,0.9
 970640848,-0.9175300713,-1.9411556486\H,-1.0357372602,-1.044638044,-3.
 400544549\H,-1.2068548751,0.6867110519,-3.3012453818\H,1.0551357717,0.
 9658996749,-4.3337934508\H,1.209078317,-0.764264217,-4.468793189\H,-0.
 7631049491,-0.8547910544,-5.9518116624\H,-0.9681283543,0.8747726348,-5
 .8100616383\H,0.2905567429,0.1454825278,-7.7816537306\H,1.2112810403,1
 .0809722017,-6.8504324914\H,1.0327242465,-0.9912628294,0.4266771236\H,
 -0.2435184791,1.3458868187,1.2193176111\H,-0.8739851722,-2.1393495784,
 1.4414877801\H,-1.6131457217,-0.5935717589,1.8602397542\H,1.4701921414
 ,0.1477011879,4.8384492984\H,0.4446667225,-1.0561760343,5.5866340559\H
 ,0.3099307852,1.1036498663,6.8396321426\H,-0.2139655022,1.9232248764,5
 .3731354231\H,-1.2489391815,0.7139810548,6.1214872823\\Version=EM64L-G
 09RevC.01\State=1-A\HF=-724.9768562\RMSD=9.986e-09\RMSF=2.396e-06\Dipo
 le=-1.3956567,0.8738547,-0.7158758\Quadrupole=-5.4916204,-1.9190884,7.
 4107088,3.324269,3.4145577,-1.8053423\PG=C01 [X(C10H22N2O3)]\\@


 The juvenile sea squirt wanders through the sea searching
 for a suitable rock or hunk of coral to cling to and make
 its home for life.  For this task it has a rudimentary
 nervous system.  When it finds its spot and takes root, it
 doesn't need its brain any more so it eats it.
 It's rather like getting tenure.

                               -- source unknown
 Job cpu time:  0 days  0 hours 22 minutes 48.6 seconds.
 File lengths (MBytes):  RWF=     51 Int=      0 D2E=      0 Chk=      8 Scr=      1
 Normal termination of Gaussian 09 at Tue Apr  1 15:59:49 2014.
