 Entering Gaussian System, Link 0=g09
 Input=DP1.com
 Output=DP1.log
 Initial command:
 /soft/gaussian/g09/l1.exe /scratch/pieong/Gau-19112.inp -scrdir=/scratch/pieong/
 Entering Link 1 = /soft/gaussian/g09/l1.exe PID=     19115.
  
 Copyright (c) 1988,1990,1992,1993,1995,1998,2003,2009,2011,
            Gaussian, Inc.  All Rights Reserved.
  
 This is part of the Gaussian(R) 09 program.  It is based on
 the Gaussian(R) 03 system (copyright 2003, Gaussian, Inc.),
 the Gaussian(R) 98 system (copyright 1998, Gaussian, Inc.),
 the Gaussian(R) 94 system (copyright 1995, Gaussian, Inc.),
 the Gaussian 92(TM) system (copyright 1992, Gaussian, Inc.),
 the Gaussian 90(TM) system (copyright 1990, Gaussian, Inc.),
 the Gaussian 88(TM) system (copyright 1988, Gaussian, Inc.),
 the Gaussian 86(TM) system (copyright 1986, Carnegie Mellon
 University), and the Gaussian 82(TM) system (copyright 1983,
 Carnegie Mellon University). Gaussian is a federally registered
 trademark of Gaussian, Inc.
  
 This software contains proprietary and confidential information,
 including trade secrets, belonging to Gaussian, Inc.
  
 This software is provided under written license and may be
 used, copied, transmitted, or stored only in accord with that
 written license.
  
 The following legend is applicable only to US Government
 contracts under FAR:
  
                    RESTRICTED RIGHTS LEGEND
  
 Use, reproduction and disclosure by the US Government is
 subject to restrictions as set forth in subparagraphs (a)
 and (c) of the Commercial Computer Software - Restricted
 Rights clause in FAR 52.227-19.
  
 Gaussian, Inc.
 340 Quinnipiac St., Bldg. 40, Wallingford CT 06492
  
  
 ---------------------------------------------------------------
 Warning -- This program may not be used in any manner that
 competes with the business of Gaussian, Inc. or will provide
 assistance to any competitor of Gaussian, Inc.  The licensee
 of this program is prohibited from giving any competitor of
 Gaussian, Inc. access to this program.  By using this program,
 the user acknowledges that Gaussian, Inc. is engaged in the
 business of creating and licensing software in the field of
 computational chemistry and represents and warrants to the
 licensee that it is not a competitor of Gaussian, Inc. and that
 it will not use this program in any manner prohibited above.
 ---------------------------------------------------------------
  

 Cite this work as:
 Gaussian 09, Revision C.01,
 M. J. Frisch, G. W. Trucks, H. B. Schlegel, G. E. Scuseria, 
 M. A. Robb, J. R. Cheeseman, G. Scalmani, V. Barone, B. Mennucci, 
 G. A. Petersson, H. Nakatsuji, M. Caricato, X. Li, H. P. Hratchian, 
 A. F. Izmaylov, J. Bloino, G. Zheng, J. L. Sonnenberg, M. Hada, 
 M. Ehara, K. Toyota, R. Fukuda, J. Hasegawa, M. Ishida, T. Nakajima, 
 Y. Honda, O. Kitao, H. Nakai, T. Vreven, J. A. Montgomery, Jr., 
 J. E. Peralta, F. Ogliaro, M. Bearpark, J. J. Heyd, E. Brothers, 
 K. N. Kudin, V. N. Staroverov, T. Keith, R. Kobayashi, J. Normand, 
 K. Raghavachari, A. Rendell, J. C. Burant, S. S. Iyengar, J. Tomasi, 
 M. Cossi, N. Rega, J. M. Millam, M. Klene, J. E. Knox, J. B. Cross, 
 V. Bakken, C. Adamo, J. Jaramillo, R. Gomperts, R. E. Stratmann, 
 O. Yazyev, A. J. Austin, R. Cammi, C. Pomelli, J. W. Ochterski, 
 R. L. Martin, K. Morokuma, V. G. Zakrzewski, G. A. Voth, 
 P. Salvador, J. J. Dannenberg, S. Dapprich, A. D. Daniels, 
 O. Farkas, J. B. Foresman, J. V. Ortiz, J. Cioslowski, 
 and D. J. Fox, Gaussian, Inc., Wallingford CT, 2010.
 
 ******************************************
 Gaussian 09:  EM64L-G09RevC.01 23-Sep-2011
                 1-Apr-2014 
 ******************************************
 %chk=molecule
 ----------------------------------------------------------------------
 #HF/6-31G* SCF=tight Test Pop=MK iop(6/33=2) iop(6/42=6) opt # iop(6/5
 0=1)
 ----------------------------------------------------------------------
 1/18=20,19=15,38=1/1,3;
 2/9=110,12=2,17=6,18=5,40=1/2;
 3/5=1,6=6,7=1,11=9,16=1,25=1,30=1,71=1/1,2,3;
 4//1;
 5/5=2,32=2,38=5/2;
 6/7=2,8=2,9=2,10=2,15=8,20=1,28=1,33=2,42=6,50=1/1,2;
 7//1,2,3,16;
 1/18=20,19=15/3(2);
 2/9=110/2;
 99//99;
 2/9=110/2;
 3/5=1,6=6,7=1,11=9,16=1,25=1,30=1,71=1/1,2,3;
 4/5=5,16=3/1;
 5/5=2,32=2,38=5/2;
 7//1,2,3,16;
 1/18=20,19=15/3(-5);
 2/9=110/2;
 6/7=2,8=2,9=2,10=2,15=8,19=2,20=1,28=1,33=2,42=6,50=1/1,2;
 99/9=1/99;
 ---------------------
 remark line goes here
 ---------------------
 Charge =  0 Multiplicity = 1
 Symbolic Z-Matrix:
 N                    -4.68      1.363     0.225 
 C                    -4.737     0.099    -0.091 
 N                    -5.94     -0.468    -0.44 
 N                    -7.079     0.335    -0.579 
 O                    -6.972     1.481    -0.978 
 O                    -8.177    -0.112    -0.3 
 N                    -3.595    -0.665    -0.077 
 C                    -2.313    -0.061     0.294 
 C                    -1.211    -1.12      0.23 
 C                     0.127    -0.489     0.617 
 C                     1.229    -1.549     0.553 
 N                     0.977    -2.579     1.569 
 C                     2.564    -0.902     0.815 
 O                     3.072    -0.981     1.913 
 N                     3.195    -0.235    -0.172 
 C                     4.493     0.394     0.082 
 C                     4.281     1.764     0.675 
 O                     3.155     2.173     0.866 
 N                     5.341     2.532     0.993 
 C                     5.264     0.522    -1.233 
 C                     5.589    -0.872    -1.772 
 N                     6.33     -0.749    -3.035 
 H                    -5.496     1.879     0.309 
 H                    -6.       -1.425    -0.589 
 H                    -3.637    -1.605    -0.313 
 H                    -2.378     0.335     1.308 
 H                    -2.079     0.749    -0.397 
 H                    -1.146    -1.516    -0.784 
 H                    -1.445    -1.93      0.921 
 H                     0.062    -0.093     1.631 
 H                     0.361     0.321    -0.074 
 H                     1.235    -2.007    -0.436 
 H                     0.98     -2.112     2.463 
 H                     0.036    -2.911     1.418 
 H                     2.789    -0.171    -1.051 
 H                     5.064    -0.219     0.779 
 H                     6.241     2.205     0.84 
 H                     5.204     3.414     1.374 
 H                     6.191     1.07     -1.059 
 H                     4.656     1.06     -1.96 
 H                     4.663    -1.419    -1.946 
 H                     6.198    -1.41     -1.045 
 H                     7.22     -0.332    -2.809 
 H                     6.521    -1.688    -3.351 
 

 GradGradGradGradGradGradGradGradGradGradGradGradGradGradGradGradGradGrad
 Berny optimization.
 Initialization pass.
                           ----------------------------
                           !    Initial Parameters    !
                           ! (Angstroms and Degrees)  !
 --------------------------                            --------------------------
 ! Name  Definition              Value          Derivative Info.                !
 --------------------------------------------------------------------------------
 ! R1    R(1,2)                  1.3041         estimate D2E/DX2                !
 ! R2    R(1,23)                 0.9691         estimate D2E/DX2                !
 ! R3    R(2,3)                  1.375          estimate D2E/DX2                !
 ! R4    R(2,7)                  1.3741         estimate D2E/DX2                !
 ! R5    R(3,4)                  1.4005         estimate D2E/DX2                !
 ! R6    R(3,24)                 0.9704         estimate D2E/DX2                !
 ! R7    R(4,5)                  1.2182         estimate D2E/DX2                !
 ! R8    R(4,6)                  1.2179         estimate D2E/DX2                !
 ! R9    R(7,8)                  1.4649         estimate D2E/DX2                !
 ! R10   R(7,25)                 0.9701         estimate D2E/DX2                !
 ! R11   R(8,9)                  1.5297         estimate D2E/DX2                !
 ! R12   R(8,26)                 1.0905         estimate D2E/DX2                !
 ! R13   R(8,27)                 1.0901         estimate D2E/DX2                !
 ! R14   R(9,10)                 1.5291         estimate D2E/DX2                !
 ! R15   R(9,28)                 1.0905         estimate D2E/DX2                !
 ! R16   R(9,29)                 1.0901         estimate D2E/DX2                !
 ! R17   R(10,11)                1.5304         estimate D2E/DX2                !
 ! R18   R(10,30)                1.0905         estimate D2E/DX2                !
 ! R19   R(10,31)                1.0901         estimate D2E/DX2                !
 ! R20   R(11,12)                1.4686         estimate D2E/DX2                !
 ! R21   R(11,13)                1.5065         estimate D2E/DX2                !
 ! R22   R(11,32)                1.0899         estimate D2E/DX2                !
 ! R23   R(12,33)                1.0086         estimate D2E/DX2                !
 ! R24   R(12,34)                1.0092         estimate D2E/DX2                !
 ! R25   R(13,14)                1.2124         estimate D2E/DX2                !
 ! R26   R(13,15)                1.348          estimate D2E/DX2                !
 ! R27   R(15,16)                1.4646         estimate D2E/DX2                !
 ! R28   R(15,35)                0.9703         estimate D2E/DX2                !
 ! R29   R(16,17)                1.5078         estimate D2E/DX2                !
 ! R30   R(16,20)                1.5297         estimate D2E/DX2                !
 ! R31   R(16,36)                1.0898         estimate D2E/DX2                !
 ! R32   R(17,18)                1.2131         estimate D2E/DX2                !
 ! R33   R(17,19)                1.3471         estimate D2E/DX2                !
 ! R34   R(19,37)                0.9697         estimate D2E/DX2                !
 ! R35   R(19,38)                0.9705         estimate D2E/DX2                !
 ! R36   R(20,21)                1.5295         estimate D2E/DX2                !
 ! R37   R(20,39)                1.0908         estimate D2E/DX2                !
 ! R38   R(20,40)                1.0898         estimate D2E/DX2                !
 ! R39   R(21,22)                1.4695         estimate D2E/DX2                !
 ! R40   R(21,41)                1.0895         estimate D2E/DX2                !
 ! R41   R(21,42)                1.0903         estimate D2E/DX2                !
 ! R42   R(22,43)                1.0085         estimate D2E/DX2                !
 ! R43   R(22,44)                1.009          estimate D2E/DX2                !
 ! A1    A(2,1,23)             120.0171         estimate D2E/DX2                !
 ! A2    A(1,2,3)              119.9621         estimate D2E/DX2                !
 ! A3    A(1,2,7)              120.0069         estimate D2E/DX2                !
 ! A4    A(3,2,7)              120.031          estimate D2E/DX2                !
 ! A5    A(2,3,4)              120.0207         estimate D2E/DX2                !
 ! A6    A(2,3,24)             119.9842         estimate D2E/DX2                !
 ! A7    A(4,3,24)             119.995          estimate D2E/DX2                !
 ! A8    A(3,4,5)              120.0304         estimate D2E/DX2                !
 ! A9    A(3,4,6)              120.0024         estimate D2E/DX2                !
 ! A10   A(5,4,6)              119.9672         estimate D2E/DX2                !
 ! A11   A(2,7,8)              120.0439         estimate D2E/DX2                !
 ! A12   A(2,7,25)             120.0205         estimate D2E/DX2                !
 ! A13   A(8,7,25)             119.9355         estimate D2E/DX2                !
 ! A14   A(7,8,9)              109.5369         estimate D2E/DX2                !
 ! A15   A(7,8,26)             109.4537         estimate D2E/DX2                !
 ! A16   A(7,8,27)             109.4926         estimate D2E/DX2                !
 ! A17   A(9,8,26)             109.4651         estimate D2E/DX2                !
 ! A18   A(9,8,27)             109.4658         estimate D2E/DX2                !
 ! A19   A(26,8,27)            109.413          estimate D2E/DX2                !
 ! A20   A(8,9,10)             109.5176         estimate D2E/DX2                !
 ! A21   A(8,9,28)             109.4651         estimate D2E/DX2                !
 ! A22   A(8,9,29)             109.4658         estimate D2E/DX2                !
 ! A23   A(10,9,28)            109.4523         estimate D2E/DX2                !
 ! A24   A(10,9,29)            109.5133         estimate D2E/DX2                !
 ! A25   A(28,9,29)            109.413          estimate D2E/DX2                !
 ! A26   A(9,10,11)            109.4921         estimate D2E/DX2                !
 ! A27   A(9,10,30)            109.4523         estimate D2E/DX2                !
 ! A28   A(9,10,31)            109.5133         estimate D2E/DX2                !
 ! A29   A(11,10,30)           109.4704         estimate D2E/DX2                !
 ! A30   A(11,10,31)           109.4862         estimate D2E/DX2                !
 ! A31   A(30,10,31)           109.413          estimate D2E/DX2                !
 ! A32   A(10,11,12)           109.4689         estimate D2E/DX2                !
 ! A33   A(10,11,13)           109.4734         estimate D2E/DX2                !
 ! A34   A(10,11,32)           109.4489         estimate D2E/DX2                !
 ! A35   A(12,11,13)           109.4489         estimate D2E/DX2                !
 ! A36   A(12,11,32)           109.5115         estimate D2E/DX2                !
 ! A37   A(13,11,32)           109.4757         estimate D2E/DX2                !
 ! A38   A(11,12,33)           106.736          estimate D2E/DX2                !
 ! A39   A(11,12,34)           106.6913         estimate D2E/DX2                !
 ! A40   A(33,12,34)           106.7206         estimate D2E/DX2                !
 ! A41   A(11,13,14)           120.055          estimate D2E/DX2                !
 ! A42   A(11,13,15)           119.9981         estimate D2E/DX2                !
 ! A43   A(14,13,15)           119.9469         estimate D2E/DX2                !
 ! A44   A(13,15,16)           120.0246         estimate D2E/DX2                !
 ! A45   A(13,15,35)           120.0021         estimate D2E/DX2                !
 ! A46   A(16,15,35)           119.9734         estimate D2E/DX2                !
 ! A47   A(15,16,17)           109.5009         estimate D2E/DX2                !
 ! A48   A(15,16,20)           109.4839         estimate D2E/DX2                !
 ! A49   A(15,16,36)           109.4941         estimate D2E/DX2                !
 ! A50   A(17,16,20)           109.446          estimate D2E/DX2                !
 ! A51   A(17,16,36)           109.4643         estimate D2E/DX2                !
 ! A52   A(20,16,36)           109.4381         estimate D2E/DX2                !
 ! A53   A(16,17,18)           119.9181         estimate D2E/DX2                !
 ! A54   A(16,17,19)           120.0151         estimate D2E/DX2                !
 ! A55   A(18,17,19)           120.0668         estimate D2E/DX2                !
 ! A56   A(17,19,37)           120.055          estimate D2E/DX2                !
 ! A57   A(17,19,38)           119.9829         estimate D2E/DX2                !
 ! A58   A(37,19,38)           119.962          estimate D2E/DX2                !
 ! A59   A(16,20,21)           109.4978         estimate D2E/DX2                !
 ! A60   A(16,20,39)           109.465          estimate D2E/DX2                !
 ! A61   A(16,20,40)           109.4862         estimate D2E/DX2                !
 ! A62   A(21,20,39)           109.4814         estimate D2E/DX2                !
 ! A63   A(21,20,40)           109.4751         estimate D2E/DX2                !
 ! A64   A(39,20,40)           109.4218         estimate D2E/DX2                !
 ! A65   A(20,21,22)           109.4963         estimate D2E/DX2                !
 ! A66   A(20,21,41)           109.4676         estimate D2E/DX2                !
 ! A67   A(20,21,42)           109.4766         estimate D2E/DX2                !
 ! A68   A(22,21,41)           109.4723         estimate D2E/DX2                !
 ! A69   A(22,21,42)           109.4342         estimate D2E/DX2                !
 ! A70   A(41,21,42)           109.4803         estimate D2E/DX2                !
 ! A71   A(21,22,43)           106.6792         estimate D2E/DX2                !
 ! A72   A(21,22,44)           106.6627         estimate D2E/DX2                !
 ! A73   A(43,22,44)           106.7342         estimate D2E/DX2                !
 ! D1    D(23,1,2,3)             6.7352         estimate D2E/DX2                !
 ! D2    D(23,1,2,7)          -173.3606         estimate D2E/DX2                !
 ! D3    D(1,2,3,4)              6.0264         estimate D2E/DX2                !
 ! D4    D(1,2,3,24)          -173.9011         estimate D2E/DX2                !
 ! D5    D(7,2,3,4)           -173.8777         estimate D2E/DX2                !
 ! D6    D(7,2,3,24)             6.1948         estimate D2E/DX2                !
 ! D7    D(1,2,7,8)              0.0586         estimate D2E/DX2                !
 ! D8    D(1,2,7,25)          -179.9302         estimate D2E/DX2                !
 ! D9    D(3,2,7,8)            179.9627         estimate D2E/DX2                !
 ! D10   D(3,2,7,25)            -0.0261         estimate D2E/DX2                !
 ! D11   D(2,3,4,5)             32.525          estimate D2E/DX2                !
 ! D12   D(2,3,4,6)           -147.4211         estimate D2E/DX2                !
 ! D13   D(24,3,4,5)          -147.5475         estimate D2E/DX2                !
 ! D14   D(24,3,4,6)            32.5064         estimate D2E/DX2                !
 ! D15   D(2,7,8,9)            179.9733         estimate D2E/DX2                !
 ! D16   D(2,7,8,26)            59.9512         estimate D2E/DX2                !
 ! D17   D(2,7,8,27)           -59.9799         estimate D2E/DX2                !
 ! D18   D(25,7,8,9)            -0.0378         estimate D2E/DX2                !
 ! D19   D(25,7,8,26)         -120.0599         estimate D2E/DX2                !
 ! D20   D(25,7,8,27)          120.009          estimate D2E/DX2                !
 ! D21   D(7,8,9,10)           179.9865         estimate D2E/DX2                !
 ! D22   D(7,8,9,28)            59.9849         estimate D2E/DX2                !
 ! D23   D(7,8,9,29)           -59.9369         estimate D2E/DX2                !
 ! D24   D(26,8,9,10)          -59.9984         estimate D2E/DX2                !
 ! D25   D(26,8,9,28)          180.0            estimate D2E/DX2                !
 ! D26   D(26,8,9,29)           60.0783         estimate D2E/DX2                !
 ! D27   D(27,8,9,10)           59.9233         estimate D2E/DX2                !
 ! D28   D(27,8,9,28)          -60.0783         estimate D2E/DX2                !
 ! D29   D(27,8,9,29)          180.0            estimate D2E/DX2                !
 ! D30   D(8,9,10,11)          179.9908         estimate D2E/DX2                !
 ! D31   D(8,9,10,30)           59.9906         estimate D2E/DX2                !
 ! D32   D(8,9,10,31)          -59.9523         estimate D2E/DX2                !
 ! D33   D(28,9,10,11)         -59.9998         estimate D2E/DX2                !
 ! D34   D(28,9,10,30)         180.0            estimate D2E/DX2                !
 ! D35   D(28,9,10,31)          60.0571         estimate D2E/DX2                !
 ! D36   D(29,9,10,11)          59.9431         estimate D2E/DX2                !
 ! D37   D(29,9,10,30)         -60.0571         estimate D2E/DX2                !
 ! D38   D(29,9,10,31)         180.0            estimate D2E/DX2                !
 ! D39   D(9,10,11,12)         -64.9946         estimate D2E/DX2                !
 ! D40   D(9,10,11,13)         175.0328         estimate D2E/DX2                !
 ! D41   D(9,10,11,32)          55.0397         estimate D2E/DX2                !
 ! D42   D(30,10,11,12)         54.9946         estimate D2E/DX2                !
 ! D43   D(30,10,11,13)        -64.978          estimate D2E/DX2                !
 ! D44   D(30,10,11,32)        175.0288         estimate D2E/DX2                !
 ! D45   D(31,10,11,12)        174.932          estimate D2E/DX2                !
 ! D46   D(31,10,11,13)         54.9594         estimate D2E/DX2                !
 ! D47   D(31,10,11,32)        -65.0338         estimate D2E/DX2                !
 ! D48   D(10,11,12,33)        -59.989          estimate D2E/DX2                !
 ! D49   D(10,11,12,34)         53.8276         estimate D2E/DX2                !
 ! D50   D(13,11,12,33)         59.9986         estimate D2E/DX2                !
 ! D51   D(13,11,12,34)        173.8152         estimate D2E/DX2                !
 ! D52   D(32,11,12,33)       -179.9849         estimate D2E/DX2                !
 ! D53   D(32,11,12,34)        -66.1683         estimate D2E/DX2                !
 ! D54   D(10,11,13,14)        100.0221         estimate D2E/DX2                !
 ! D55   D(10,11,13,15)        -80.0055         estimate D2E/DX2                !
 ! D56   D(12,11,13,14)        -19.9628         estimate D2E/DX2                !
 ! D57   D(12,11,13,15)        160.0096         estimate D2E/DX2                !
 ! D58   D(32,11,13,14)       -140.0012         estimate D2E/DX2                !
 ! D59   D(32,11,13,15)         39.9712         estimate D2E/DX2                !
 ! D60   D(11,13,15,16)       -179.9883         estimate D2E/DX2                !
 ! D61   D(11,13,15,35)          0.0498         estimate D2E/DX2                !
 ! D62   D(14,13,15,16)         -0.0159         estimate D2E/DX2                !
 ! D63   D(14,13,15,35)       -179.9778         estimate D2E/DX2                !
 ! D64   D(13,15,16,17)        -84.9929         estimate D2E/DX2                !
 ! D65   D(13,15,16,20)        155.0121         estimate D2E/DX2                !
 ! D66   D(13,15,16,36)         35.0309         estimate D2E/DX2                !
 ! D67   D(35,15,16,17)         94.9691         estimate D2E/DX2                !
 ! D68   D(35,15,16,20)        -25.026          estimate D2E/DX2                !
 ! D69   D(35,15,16,36)       -145.0071         estimate D2E/DX2                !
 ! D70   D(15,16,17,18)          0.0029         estimate D2E/DX2                !
 ! D71   D(15,16,17,19)        179.9548         estimate D2E/DX2                !
 ! D72   D(20,16,17,18)        120.0211         estimate D2E/DX2                !
 ! D73   D(20,16,17,19)        -60.027          estimate D2E/DX2                !
 ! D74   D(36,16,17,18)       -120.0391         estimate D2E/DX2                !
 ! D75   D(36,16,17,19)         59.9129         estimate D2E/DX2                !
 ! D76   D(15,16,20,21)        -65.0013         estimate D2E/DX2                !
 ! D77   D(15,16,20,39)        174.9738         estimate D2E/DX2                !
 ! D78   D(15,16,20,40)         55.029          estimate D2E/DX2                !
 ! D79   D(17,16,20,21)        174.9701         estimate D2E/DX2                !
 ! D80   D(17,16,20,39)         54.9451         estimate D2E/DX2                !
 ! D81   D(17,16,20,40)        -64.9997         estimate D2E/DX2                !
 ! D82   D(36,16,20,21)         55.0142         estimate D2E/DX2                !
 ! D83   D(36,16,20,39)        -65.0108         estimate D2E/DX2                !
 ! D84   D(36,16,20,40)        175.0444         estimate D2E/DX2                !
 ! D85   D(16,17,19,37)          0.0667         estimate D2E/DX2                !
 ! D86   D(16,17,19,38)        179.9514         estimate D2E/DX2                !
 ! D87   D(18,17,19,37)       -179.9814         estimate D2E/DX2                !
 ! D88   D(18,17,19,38)         -0.0968         estimate D2E/DX2                !
 ! D89   D(16,20,21,22)       -179.9826         estimate D2E/DX2                !
 ! D90   D(16,20,21,41)         60.0029         estimate D2E/DX2                !
 ! D91   D(16,20,21,42)        -60.0092         estimate D2E/DX2                !
 ! D92   D(39,20,21,22)        -59.9677         estimate D2E/DX2                !
 ! D93   D(39,20,21,41)       -179.9821         estimate D2E/DX2                !
 ! D94   D(39,20,21,42)         60.0057         estimate D2E/DX2                !
 ! D95   D(40,20,21,22)         59.9804         estimate D2E/DX2                !
 ! D96   D(40,20,21,41)        -60.0341         estimate D2E/DX2                !
 ! D97   D(40,20,21,42)        179.9538         estimate D2E/DX2                !
 ! D98   D(20,21,22,43)         66.2213         estimate D2E/DX2                !
 ! D99   D(20,21,22,44)       -179.9859         estimate D2E/DX2                !
 ! D100  D(41,21,22,43)       -173.7671         estimate D2E/DX2                !
 ! D101  D(41,21,22,44)        -59.9743         estimate D2E/DX2                !
 ! D102  D(42,21,22,43)        -53.778          estimate D2E/DX2                !
 ! D103  D(42,21,22,44)         60.0148         estimate D2E/DX2                !
 --------------------------------------------------------------------------------
 Trust Radius=3.00D-01 FncErr=1.00D-07 GrdErr=1.00D-07
 Number of steps in this run=    229 maximum allowed number of steps=    264.
 GradGradGradGradGradGradGradGradGradGradGradGradGradGradGradGradGradGrad

                          Input orientation:                          
 ---------------------------------------------------------------------
 Center     Atomic      Atomic             Coordinates (Angstroms)
 Number     Number       Type             X           Y           Z
 ---------------------------------------------------------------------
      1          7           0       -4.680000    1.363000    0.225000
      2          6           0       -4.737000    0.099000   -0.091000
      3          7           0       -5.940000   -0.468000   -0.440000
      4          7           0       -7.079000    0.335000   -0.579000
      5          8           0       -6.972000    1.481000   -0.978000
      6          8           0       -8.177000   -0.112000   -0.300000
      7          7           0       -3.595000   -0.665000   -0.077000
      8          6           0       -2.313000   -0.061000    0.294000
      9          6           0       -1.211000   -1.120000    0.230000
     10          6           0        0.127000   -0.489000    0.617000
     11          6           0        1.229000   -1.549000    0.553000
     12          7           0        0.977000   -2.579000    1.569000
     13          6           0        2.564000   -0.902000    0.815000
     14          8           0        3.072000   -0.981000    1.913000
     15          7           0        3.195000   -0.235000   -0.172000
     16          6           0        4.493000    0.394000    0.082000
     17          6           0        4.281000    1.764000    0.675000
     18          8           0        3.155000    2.173000    0.866000
     19          7           0        5.341000    2.532000    0.993000
     20          6           0        5.264000    0.522000   -1.233000
     21          6           0        5.589000   -0.872000   -1.772000
     22          7           0        6.330000   -0.749000   -3.035000
     23          1           0       -5.496000    1.879000    0.309000
     24          1           0       -6.000000   -1.425000   -0.589000
     25          1           0       -3.637000   -1.605000   -0.313000
     26          1           0       -2.378000    0.335000    1.308000
     27          1           0       -2.079000    0.749000   -0.397000
     28          1           0       -1.146000   -1.516000   -0.784000
     29          1           0       -1.445000   -1.930000    0.921000
     30          1           0        0.062000   -0.093000    1.631000
     31          1           0        0.361000    0.321000   -0.074000
     32          1           0        1.235000   -2.007000   -0.436000
     33          1           0        0.980000   -2.112000    2.463000
     34          1           0        0.036000   -2.911000    1.418000
     35          1           0        2.789000   -0.171000   -1.051000
     36          1           0        5.064000   -0.219000    0.779000
     37          1           0        6.241000    2.205000    0.840000
     38          1           0        5.204000    3.414000    1.374000
     39          1           0        6.191000    1.070000   -1.059000
     40          1           0        4.656000    1.060000   -1.960000
     41          1           0        4.663000   -1.419000   -1.946000
     42          1           0        6.198000   -1.410000   -1.045000
     43          1           0        7.220000   -0.332000   -2.809000
     44          1           0        6.521000   -1.688000   -3.351000
 ---------------------------------------------------------------------
                    Distance matrix (angstroms):
                    1          2          3          4          5
     1  N    0.000000
     2  C    1.304148   0.000000
     3  N    2.319997   1.374954   0.000000
     4  N    2.731007   2.403914   1.400518   0.000000
     5  O    2.591215   2.773431   2.270037   1.218181   0.000000
     6  O    3.831483   3.452796   2.269472   1.217889   2.109350
     7  N    2.319744   1.374066   2.381093   3.659270   4.101371
     8  C    2.763191   2.459594   3.722840   4.861451   5.069717
     9  C    4.266061   3.744553   4.820523   6.099584   6.435339
    10  C    5.166316   4.950303   6.158423   7.350907   7.537952
    11  C    6.595727   6.222845   7.317730   8.593820   8.875881
    12  N    7.024767   6.525111   7.505817   8.832012   9.282102
    13  C    7.612743   7.424785   8.607055   9.821449   9.991438
    14  O    8.272677   8.134058   9.328233  10.534929  10.737842
    15  N    8.045299   7.939442   9.141900  10.297846  10.342252
    16  C    9.225147   9.236333  10.481556  11.591013  11.565094
    17  C    8.981248   9.202353  10.521116  11.517993  11.377280
    18  O    7.902797   8.215899   9.560311  10.497668  10.316750
    19  N   10.118143  10.424041  11.760716  12.710405  12.513969
    20  C   10.085444  10.074874  11.275574  12.361729  12.276172
    21  C   10.697457  10.506897  11.612721  12.781171  12.804131
    22  N   11.675112  11.483237  12.544556  13.675097  13.643583
    23  H    0.969107   1.975976   2.503307   2.382933   1.998337
    24  H    3.190288   2.041017   0.970387   2.064447   3.088841
    25  H    3.191601   2.040319   2.571518   3.960015   4.592150
    26  H    2.743880   2.752776   4.048229   5.065587   5.257751
    27  H    2.743917   2.753380   4.048488   5.020410   4.981449
    28  H    4.668606   3.997969   4.919256   6.218417   6.554534
    29  H    4.668350   3.997280   4.918820   6.254773   6.766746
    30  H    5.155903   5.102210   6.360320   7.487400   7.665606
    31  H    5.156243   5.102860   6.360745   7.457132   7.479018
    32  H    6.839667   6.341849   7.338199   8.638750   8.933911
    33  H    7.008557   6.640446   7.682223   8.954834   9.380002
    34  H    6.475414   5.841122   6.718109   8.071416   8.610606
    35  H    7.730931   7.591783   8.755397   9.892231   9.900078
    36  H    9.887122   9.844675  11.074113  12.231252  12.281789
    37  H   10.970662  11.216884  12.536351  13.525268  13.357121
    38  H   10.159737  10.581065  11.939399  12.812749  12.550831
    39  H   10.950486  11.013676  12.243764  13.299005  13.169664
    40  H    9.593067   9.625234  10.812974  11.838201  11.676984
    41  H    9.987213   9.700791  10.751560  11.950723  12.029973
    42  H   11.297491  11.079775  12.189521  13.399288  13.483741
    43  H   12.397104  12.269602  13.372220  14.487208  14.424021
    44  H   12.147377  11.855949  12.854526  14.026279  14.061818
                    6          7          8          9         10
     6  O    0.000000
     7  N    4.620634   0.000000
     8  C    5.894229   1.464917   0.000000
     9  C    7.058479   2.446371   1.529700   0.000000
    10  C    8.362980   3.790237   2.498222   1.529109   0.000000
    11  C    9.553293   4.944627   3.850583   2.498393   1.530392
    12  N    9.663072   5.222633   4.334749   2.951092   2.448858
    13  C   10.827576   6.227770   4.976329   3.826274   2.479666
    14  O   11.497501   6.964829   5.697876   4.603900   3.254951
    15  N   11.373385   6.804265   5.530416   4.511947   3.177996
    16  C   12.685853   8.158585   6.824486   5.903365   4.486409
    17  C   12.636129   8.276287   6.852490   6.219127   4.726001
    18  O   11.618735   7.382817   5.934388   5.505479   4.039434
    19  N   13.834699   9.550801   8.111471   7.539760   6.037683
    20  C   13.488251   9.012613   7.751293   6.838286   5.552782
    21  C   13.865321   9.341399   8.207782   7.092920   5.973898
    22  N   14.776300  10.356758   9.287467   8.225846   7.202910
    23  H    3.394514   3.199177   3.727642   5.230819   6.109044
    24  H    2.558675   2.573668   4.029163   4.868091   6.314322
    25  H    4.779207   0.970082   2.122584   2.532894   4.034607
    26  H    6.034391   2.097454   1.090521   2.154298   2.726074
    27  H    6.159248   2.097630   1.090109   2.154000   2.725303
    28  H    7.186128   2.687313   2.154298   1.090521   2.153615
    29  H    7.079251   2.686769   2.154000   1.090109   2.154085
    30  H    8.462284   4.076530   2.725659   2.153615   1.090521
    31  H    8.551959   4.077026   2.726101   2.154085   1.090109
    32  H    9.601837   5.025808   4.111948   2.685748   2.154251
    33  H    9.771633   5.429184   4.444661   3.281895   2.601817
    34  H    8.845298   4.523682   3.860528   2.484760   2.552639
    35  H   10.991844   6.476741   5.277455   4.305991   3.157466
    36  H   13.285322   8.712631   7.394614   6.363083   4.947031
    37  H   14.647417  10.287113   8.865878   8.182911   6.684935
    38  H   13.938655   9.806429   8.351486   7.938395   6.448441
    39  H   14.436503   9.987009   8.684917   7.826061   6.481632
    40  H   12.992885   8.637147   7.409731   6.631002   5.436191
    41  H   13.010886   8.500367   7.451600   6.271224   5.292369
    42  H   14.452697   9.868885   8.720656   7.523497   6.361409
    43  H   15.601637  11.159702  10.028965   8.996567   7.878628
    44  H   15.093826  10.681716   9.693952   8.539907   7.620096
                   11         12         13         14         15
    11  C    0.000000
    12  N    1.468557   0.000000
    13  C    1.506479   2.428871   0.000000
    14  O    2.359846   2.657248   1.212398   0.000000
    15  N    2.473333   3.666734   1.348043   2.217853   0.000000
    16  C    3.827635   4.838611   2.436790   2.694889   1.464569
    17  C    4.506169   5.529675   3.174153   3.244896   2.427510
    18  O    4.202467   5.274410   3.131694   3.324276   2.622500
    19  N    5.810052   6.745264   4.419929   4.282047   3.690370
    20  C    4.874429   5.987134   3.675878   4.118396   2.445308
    21  C    4.987339   5.945307   3.980464   4.463899   2.949068
    22  N    6.287602   7.293855   5.387826   5.928836   4.276586
    23  H    7.552241   7.959968   8.541288   9.174042   8.957334
    24  H    7.319698   7.393728   8.694069   9.421164   9.281057
    25  H    4.942777   5.077361   6.341845   7.096135   6.969434
    26  H    4.138832   4.451465   5.118260   5.639183   5.794276
    27  H    4.138377   4.927461   5.074662   5.904388   5.369726
    28  H    2.725671   3.342710   4.086306   5.035033   4.567251
    29  H    2.725961   2.589824   4.140061   4.721012   5.059375
    30  H    2.154973   2.649767   2.753242   3.150900   3.617549
    31  H    2.154867   3.389529   2.671939   3.604566   2.889688
    32  H    1.089918   2.100898   2.133604   3.153577   2.655425
    33  H    2.006756   1.008630   2.586322   2.440927   3.920788
    34  H    2.006619   1.009211   3.284886   3.631421   4.434902
    35  H    2.627794   3.993270   2.016666   3.085690   0.970347
    36  H    4.065366   4.785109   2.591869   2.415505   2.097098
    37  H    6.268575   7.150370   4.813980   4.620009   4.031856
    38  H    6.411399   7.336321   5.090180   4.914465   4.443129
    39  H    5.837735   6.885302   4.533849   4.771535   3.386120
    40  H    4.986620   6.263482   3.990806   4.655627   2.647355
    41  H    4.249030   5.223736   3.506595   4.197023   2.589200
    42  H    5.221483   5.954695   4.113833   4.325006   3.340773
    43  H    6.976834   7.949273   5.927614   6.318575   4.812879
    44  H    6.577674   7.465669   5.799241   6.332862   4.824886
                   16         17         18         19         20
    16  C    0.000000
    17  C    1.507811   0.000000
    18  O    2.360030   1.213111   0.000000
    19  N    2.473877   1.347052   2.218920   0.000000
    20  C    1.529722   2.479782   3.402864   3.000184   0.000000
    21  C    2.498257   3.827162   4.706955   4.392487   1.529504
    22  N    3.794299   4.927238   5.816916   5.288465   2.449286
    23  H   10.101330   9.784524   8.673897  10.878182  10.954306
    24  H   10.670616  10.838191   9.943674  12.115232  11.449159
    25  H    8.381463   8.661468   7.860953   9.971203   9.197735
    26  H    6.979771   6.839957   5.847025   8.031749   8.055546
    27  H    6.598989   6.529089   5.569354   7.756777   7.393921
    28  H    6.016342   6.506874   5.901680   7.850172   6.741153
    29  H    6.431543   6.818594   6.164222   8.121849   7.460744
    30  H    4.719145   4.707690   3.909812   5.930051   5.970052
    31  H    4.135588   4.243778   3.481370   5.552244   5.042132
    32  H    4.080158   4.973216   4.780586   6.285205   4.823266
    33  H    4.928526   5.396010   5.063819   6.538039   6.241076
    34  H    5.707256   6.358278   5.989985   7.612483   6.793031
    35  H    2.122859   2.991549   3.050112   4.242269   2.576625
    36  H    1.089779   2.134524   3.061620   2.773180   2.153422
    37  H    2.628648   2.015764   3.086275   0.969710   2.843299
    38  H    3.360831   2.015696   2.448785   0.970492   3.894061
    39  H    2.154544   2.671421   3.760257   2.659069   1.090830
    40  H    2.154040   2.753083   3.387927   3.369899   1.089788
    41  H    2.725556   4.140900   4.804568   4.970695   2.153381
    42  H    2.726091   4.087489   5.074412   4.519652   2.154141
    43  H    4.039986   5.016891   6.025353   5.117455   2.653117
    44  H    4.498110   5.756959   6.634785   6.170181   3.309089
                   21         22         23         24         25
    21  C    0.000000
    22  N    1.469483   0.000000
    23  H   11.609297  12.567537   0.000000
    24  H   11.662342  12.588439   3.460757   0.000000
    25  H    9.369367  10.367406   3.997627   2.385864   0.000000
    26  H    8.626490   9.791117   3.619926   4.451415   2.824238
    27  H    7.957166   8.939481   3.667591   4.487469   2.824135
    28  H    6.837478   7.845117   5.625227   4.858768   2.536699
    29  H    7.605838   8.803143   5.594071   4.825262   2.536384
    30  H    6.537200   7.841538   6.043826   6.591697   4.443859
    31  H    5.624806   6.748436   6.072767   6.616348   4.444165
    32  H    4.693659   5.856312   7.807841   7.259983   4.890104
    33  H    6.380886   7.791551   7.906097   7.648992   5.411092
    34  H    6.720821   8.007365   7.401149   6.532193   4.265317
    35  H    2.975104   4.099881   8.642530   8.890021   6.625291
    36  H    2.685076   4.053425  10.776646  11.213294   8.878111
    37  H    4.088469   4.873362  11.753527  12.847608  10.649901
    38  H    5.330604   6.167473  10.861881  12.361185  10.305320
    39  H    2.154562   2.689360  11.794570  12.452566  10.212822
    40  H    2.153708   2.688937  10.434665  11.027475   8.865026
    41  H    1.089477   2.100883  10.916369  10.749002   8.461163
    42  H    1.090346   2.101058  12.222949  12.206530   9.864131
    43  H    2.006771   1.008496  13.278068  13.449589  11.212716
    44  H    2.006918   1.008989  13.058613  12.824713  10.602891
                   26         27         28         29         30
    26  H    0.000000
    27  H    1.779838   0.000000
    28  H    3.052948   2.480017   0.000000
    29  H    2.480017   3.052232   1.779838   0.000000
    30  H    2.498222   3.066860   3.052281   2.479862   0.000000
    31  H    3.067938   2.498222   2.479862   3.052648   1.779838
    32  H    4.645457   4.310412   2.455880   3.004959   3.051527
    33  H    4.312540   5.071726   3.926589   2.879499   2.368820
    34  H    4.046729   4.600332   2.862159   1.844649   2.826158
    35  H    5.702526   4.997153   4.167078   4.990954   3.825668
    36  H    7.481318   7.303592   6.533703   6.731624   5.075607
    37  H    8.831936   8.536539   8.429175   8.728080   6.639769
    38  H    8.183601   7.954920   8.323723   8.542409   6.229387
    39  H    8.920240   8.302661   7.784253   8.439721   6.793623
    40  H    7.789904   6.920976   6.456156   7.379869   5.943865
    41  H    7.952403   7.249427   5.924874   6.766718   5.976822
    42  H    9.062528   8.578456   7.349401   7.908919   6.822460
    43  H   10.464998   9.667353   8.688638   9.568110   8.426606
    44  H   10.246512   9.414090   8.087148   9.042439   8.311620
                   31         32         33         34         35
    31  H    0.000000
    32  H    2.512868   0.000000
    33  H    3.569176   2.912087   0.000000
    34  H    3.574565   2.385819   1.619124   0.000000
    35  H    2.663039   2.482748   4.403199   4.602453   0.000000
    36  H    4.810137   4.397091   4.806075   5.738987   2.920073
    37  H    6.241735   6.665520   6.996338   8.062851   4.597560
    38  H    5.926044   6.958182   7.040225   8.167973   4.956317
    39  H    5.959876   5.866685   7.048697   7.737436   3.621291
    40  H    4.748699   4.840693   6.567914   6.965926   2.413987
    41  H    5.003917   3.791705   5.786538   5.911995   2.422892
    42  H    6.165206   5.035738   6.326641   6.803647   3.627180
    43  H    7.412996   6.652592   8.360621   8.725172   4.769722
    44  H    7.260882   6.044897   8.042702   8.142132   4.638870
                   36         37         38         39         40
    36  H    0.000000
    37  H    2.695334   0.000000
    38  H    3.684062   1.679942   0.000000
    39  H    2.511950   2.212900   3.519658   0.000000
    40  H    3.050316   3.415150   4.117909   1.779923   0.000000
    41  H    3.004401   4.835830   5.888376   3.052323   2.479049
    42  H    2.455894   4.077168   5.487310   2.480049   3.052194
    43  H    4.187463   4.550825   5.966093   2.467173   3.038513
    44  H    4.619276   5.726983   7.077466   3.601212   3.600640
                   41         42         43         44
    41  H    0.000000
    42  H    1.779918   0.000000
    43  H    2.909396   2.306136   0.000000
    44  H    2.344899   2.345048   1.618981   0.000000
 Stoichiometry    C10H22N8O4
 Framework group  C1[X(C10H22N8O4)]
 Deg. of freedom   126
 Full point group                 C1      NOp   1
 Largest Abelian subgroup         C1      NOp   1
 Largest concise Abelian subgroup C1      NOp   1
                         Standard orientation:                         
 ---------------------------------------------------------------------
 Center     Atomic      Atomic             Coordinates (Angstroms)
 Number     Number       Type             X           Y           Z
 ---------------------------------------------------------------------
      1          7           0        4.781227    1.404873   -0.125220
      2          6           0        4.838423    0.125916    0.123378
      3          7           0        6.039785   -0.456785    0.451537
      4          7           0        7.175856    0.339651    0.642539
      5          8           0        7.063107    1.462544    1.101195
      6          8           0        8.277064   -0.089903    0.349148
      7          7           0        3.698250   -0.638249    0.059249
      8          6           0        2.417989   -0.017565   -0.289555
      9          6           0        1.317826   -1.080401   -0.291201
     10          6           0       -0.018362   -0.432000   -0.655003
     11          6           0       -1.118522   -1.495835   -0.656702
     12          7           0       -0.856016   -2.469723   -1.724079
     13          6           0       -2.452761   -0.838120   -0.894808
     14          8           0       -2.951644   -0.859321   -1.999605
     15          7           0       -3.093223   -0.225831    0.121130
     16          6           0       -4.390489    0.413548   -0.109643
     17          6           0       -4.176676    1.813602   -0.626969
     18          8           0       -3.050058    2.234182   -0.786606
     19          7           0       -5.235734    2.595614   -0.912275
     20          6           0       -5.172432    0.469862    1.203918
     21          6           0       -5.498751   -0.951475    1.665112
     22          7           0       -6.250261   -0.897328    2.926730
     23          1           0        5.596751    1.926048   -0.174858
     24          1           0        6.100666   -1.420265    0.549775
     25          1           0        3.740388   -1.589426    0.245119
     26          1           0        2.490363    0.432079   -1.280423
     27          1           0        2.176607    0.754007    0.441710
     28          1           0        1.245453   -1.530045    0.699667
     29          1           0        1.559209   -1.851973   -1.022466
     30          1           0        0.054012    0.017644   -1.645871
     31          1           0       -0.259744    0.339572    0.076262
     32          1           0       -1.131559   -2.005953    0.306381
     33          1           0       -0.852771   -1.955701   -2.591895
     34          1           0        0.084450   -2.807656   -1.583256
     35          1           0       -2.694523   -0.208103    1.005605
     36          1           0       -4.954461   -0.162396   -0.843022
     37          1           0       -6.136230    2.259340   -0.784349
     38          1           0       -5.097573    3.496922   -1.244553
     39          1           0       -6.099185    1.024738    1.051764
     40          1           0       -4.571542    0.969376    1.963558
     41          1           0       -4.573000   -1.505355    1.817311
     42          1           0       -6.100641   -1.450992    0.905464
     43          1           0       -7.139305   -0.470425    2.715970
     44          1           0       -6.441768   -1.852182    3.190618
 ---------------------------------------------------------------------
 Rotational constants (GHZ):      0.5481002      0.0683941      0.0673014
 Standard basis: 6-31G(d) (6D, 7F)
 There are   374 symmetry adapted basis functions of A   symmetry.
 Integral buffers will be    131072 words long.
 Raffenetti 1 integral format.
 Two-electron integral symmetry is turned on.
   374 basis functions,   704 primitive gaussians,   374 cartesian basis functions
    85 alpha electrons       85 beta electrons
       nuclear repulsion energy      1790.1392936385 Hartrees.
 NAtoms=   44 NActive=   44 NUniq=   44 SFac= 1.00D+00 NAtFMM=   60 NAOKFM=F Big=F
 One-electron integrals computed using PRISM.
 NBasis=   374 RedAO= T  NBF=   374
 NBsUse=   374 1.00D-06 NBFU=   374
 Harris functional with IExCor=  205 diagonalized for initial guess.
 ExpMin= 1.61D-01 ExpMax= 5.48D+03 ExpMxC= 8.25D+02 IAcc=1 IRadAn=         1 AccDes= 0.00D+00
 HarFok:  IExCor=  205 AccDes= 0.00D+00 IRadAn=         1 IDoV= 1
 ScaDFX=  1.000000  1.000000  1.000000  1.000000
 FoFCou: FMM=F IPFlag=           0 FMFlag=      100000 FMFlg1=           0
         NFxFlg=           0 DoJE=T BraDBF=F KetDBF=T FulRan=T
         Omega=  0.000000  0.000000  1.000000  0.000000  0.000000 ICntrl=     500 IOpCl=  0
         NMat0=    1 NMatS0=    1 NMatT0=    0 NMatD0=    1 NMtDS0=    0 NMtDT0=    0
         I1Cent=           4 NGrid=           0.
 Petite list used in FoFCou.
 Initial guess orbital symmetries:
       Occupied  (A) (A) (A) (A) (A) (A) (A) (A) (A) (A) (A) (A)
                 (A) (A) (A) (A) (A) (A) (A) (A) (A) (A) (A) (A)
                 (A) (A) (A) (A) (A) (A) (A) (A) (A) (A) (A) (A)
                 (A) (A) (A) (A) (A) (A) (A) (A) (A) (A) (A) (A)
                 (A) (A) (A) (A) (A) (A) (A) (A) (A) (A) (A) (A)
                 (A) (A) (A) (A) (A) (A) (A) (A) (A) (A) (A) (A)
                 (A) (A) (A) (A) (A) (A) (A) (A) (A) (A) (A) (A)
                 (A)
       Virtual   (A) (A) (A) (A) (A) (A) (A) (A) (A) (A) (A) (A)
                 (A) (A) (A) (A) (A) (A) (A) (A) (A) (A) (A) (A)
                 (A) (A) (A) (A) (A) (A) (A) (A) (A) (A) (A) (A)
                 (A) (A) (A) (A) (A) (A) (A) (A) (A) (A) (A) (A)
                 (A) (A) (A) (A) (A) (A) (A) (A) (A) (A) (A) (A)
                 (A) (A) (A) (A) (A) (A) (A) (A) (A) (A) (A) (A)
                 (A) (A) (A) (A) (A) (A) (A) (A) (A) (A) (A) (A)
                 (A) (A) (A) (A) (A) (A) (A) (A) (A) (A) (A) (A)
                 (A) (A) (A) (A) (A) (A) (A) (A) (A) (A) (A) (A)
                 (A) (A) (A) (A) (A) (A) (A) (A) (A) (A) (A) (A)
                 (A) (A) (A) (A) (A) (A) (A) (A) (A) (A) (A) (A)
                 (A) (A) (A) (A) (A) (A) (A) (A) (A) (A) (A) (A)
                 (A) (A) (A) (A) (A) (A) (A) (A) (A) (A) (A) (A)
                 (A) (A) (A) (A) (A) (A) (A) (A) (A) (A) (A) (A)
                 (A) (A) (A) (A) (A) (A) (A) (A) (A) (A) (A) (A)
                 (A) (A) (A) (A) (A) (A) (A) (A) (A) (A) (A) (A)
                 (A) (A) (A) (A) (A) (A) (A) (A) (A) (A) (A) (A)
                 (A) (A) (A) (A) (A) (A) (A) (A) (A) (A) (A) (A)
                 (A) (A) (A) (A) (A) (A) (A) (A) (A) (A) (A) (A)
                 (A) (A) (A) (A) (A) (A) (A) (A) (A) (A) (A) (A)
                 (A) (A) (A) (A) (A) (A) (A) (A) (A) (A) (A) (A)
                 (A) (A) (A) (A) (A) (A) (A) (A) (A) (A) (A) (A)
                 (A) (A) (A) (A) (A) (A) (A) (A) (A) (A) (A) (A)
                 (A) (A) (A) (A) (A) (A) (A) (A) (A) (A) (A) (A)
                 (A)
 The electronic state of the initial guess is 1-A.
 Requested convergence on RMS density matrix=1.00D-08 within 128 cycles.
 Requested convergence on MAX density matrix=1.00D-06.
 Requested convergence on             energy=1.00D-06.
 No special actions if energy rises.
 Integral accuracy reduced to 1.0D-05 until final iterations.
 Initial convergence to 1.0D-05 achieved.  Increase integral accuracy.
 SCF Done:  E(RHF) =  -1126.33256174     A.U. after   17 cycles
             Convg  =    0.4796D-08             -V/T =  2.0019

 **********************************************************************

            Population analysis using the SCF density.

 **********************************************************************

 Orbital symmetries:
 BldTbl:  Degeneracy threshold= 1.00D-02
       Occupied  (A) (A) (A) (A) (A) (A) (A) (A) (A) (A) (A) (A)
                 (A) (A) (A) (A) (A) (A) (A) (A) (A) (A) (A) (A)
                 (A) (A) (A) (A) (A) (A) (A) (A) (A) (A) (A) (A)
                 (A) (A) (A) (A) (A) (A) (A) (A) (A) (A) (A) (A)
                 (A) (A) (A) (A) (A) (A) (A) (A) (A) (A) (A) (A)
                 (A) (A) (A) (A) (A) (A) (A) (A) (A) (A) (A) (A)
                 (A) (A) (A) (A) (A) (A) (A) (A) (A) (A) (A) (A)
                 (A)
       Virtual   (A) (A) (A) (A) (A) (A) (A) (A) (A) (A) (A) (A)
                 (A) (A) (A) (A) (A) (A) (A) (A) (A) (A) (A) (A)
                 (A) (A) (A) (A) (A) (A) (A) (A) (A) (A) (A) (A)
                 (A) (A) (A) (A) (A) (A) (A) (A) (A) (A) (A) (A)
                 (A) (A) (A) (A) (A) (A) (A) (A) (A) (A) (A) (A)
                 (A) (A) (A) (A) (A) (A) (A) (A) (A) (A) (A) (A)
                 (A) (A) (A) (A) (A) (A) (A) (A) (A) (A) (A) (A)
                 (A) (A) (A) (A) (A) (A) (A) (A) (A) (A) (A) (A)
                 (A) (A) (A) (A) (A) (A) (A) (A) (A) (A) (A) (A)
                 (A) (A) (A) (A) (A) (A) (A) (A) (A) (A) (A) (A)
                 (A) (A) (A) (A) (A) (A) (A) (A) (A) (A) (A) (A)
                 (A) (A) (A) (A) (A) (A) (A) (A) (A) (A) (A) (A)
                 (A) (A) (A) (A) (A) (A) (A) (A) (A) (A) (A) (A)
                 (A) (A) (A) (A) (A) (A) (A) (A) (A) (A) (A) (A)
                 (A) (A) (A) (A) (A) (A) (A) (A) (A) (A) (A) (A)
                 (A) (A) (A) (A) (A) (A) (A) (A) (A) (A) (A) (A)
                 (A) (A) (A) (A) (A) (A) (A) (A) (A) (A) (A) (A)
                 (A) (A) (A) (A) (A) (A) (A) (A) (A) (A) (A) (A)
                 (A) (A) (A) (A) (A) (A) (A) (A) (A) (A) (A) (A)
                 (A) (A) (A) (A) (A) (A) (A) (A) (A) (A) (A) (A)
                 (A) (A) (A) (A) (A) (A) (A) (A) (A) (A) (A) (A)
                 (A) (A) (A) (A) (A) (A) (A) (A) (A) (A) (A) (A)
                 (A) (A) (A) (A) (A) (A) (A) (A) (A) (A) (A) (A)
                 (A) (A) (A) (A) (A) (A) (A) (A) (A) (A) (A) (A)
                 (A)
 The electronic state is 1-A.
 Alpha  occ. eigenvalues --  -20.62621 -20.62305 -20.51692 -20.51652 -15.91894
 Alpha  occ. eigenvalues --  -15.68346 -15.59979 -15.58796 -15.58463 -15.55473
 Alpha  occ. eigenvalues --  -15.54289 -15.50775 -11.37795 -11.34662 -11.34241
 Alpha  occ. eigenvalues --  -11.28940 -11.27158 -11.27068 -11.26482 -11.24994
 Alpha  occ. eigenvalues --  -11.24485 -11.23647  -1.65078  -1.41911  -1.39105
 Alpha  occ. eigenvalues --   -1.37798  -1.35649  -1.25694  -1.24085  -1.22353
 Alpha  occ. eigenvalues --   -1.19861  -1.19580  -1.15090  -1.07845  -1.06887
 Alpha  occ. eigenvalues --   -1.00277  -0.97169  -0.94529  -0.89515  -0.85151
 Alpha  occ. eigenvalues --   -0.83912  -0.83637  -0.81345  -0.80352  -0.79630
 Alpha  occ. eigenvalues --   -0.78463  -0.75881  -0.75173  -0.72264  -0.71444
 Alpha  occ. eigenvalues --   -0.69700  -0.68139  -0.68012  -0.66781  -0.66483
 Alpha  occ. eigenvalues --   -0.64193  -0.63349  -0.62414  -0.61623  -0.60612
 Alpha  occ. eigenvalues --   -0.59914  -0.59002  -0.57902  -0.57249  -0.56859
 Alpha  occ. eigenvalues --   -0.54887  -0.54273  -0.53161  -0.52295  -0.51968
 Alpha  occ. eigenvalues --   -0.50971  -0.50613  -0.50300  -0.49779  -0.49453
 Alpha  occ. eigenvalues --   -0.47016  -0.43875  -0.41856  -0.41567  -0.40883
 Alpha  occ. eigenvalues --   -0.40681  -0.40615  -0.39528  -0.38826  -0.34930
 Alpha virt. eigenvalues --    0.08083   0.17980   0.19221   0.19970   0.20411
 Alpha virt. eigenvalues --    0.20844   0.21549   0.22292   0.22644   0.24449
 Alpha virt. eigenvalues --    0.24635   0.26071   0.26569   0.27477   0.28135
 Alpha virt. eigenvalues --    0.29139   0.29294   0.29879   0.31689   0.31913
 Alpha virt. eigenvalues --    0.33196   0.33415   0.33672   0.33964   0.34709
 Alpha virt. eigenvalues --    0.35891   0.36332   0.38119   0.38345   0.39134
 Alpha virt. eigenvalues --    0.40988   0.41610   0.42537   0.43775   0.46009
 Alpha virt. eigenvalues --    0.47227   0.48411   0.49263   0.51395   0.52786
 Alpha virt. eigenvalues --    0.54359   0.55847   0.56727   0.58387   0.60505
 Alpha virt. eigenvalues --    0.61328   0.64225   0.69449   0.70492   0.73242
 Alpha virt. eigenvalues --    0.74305   0.75661   0.75741   0.75926   0.76597
 Alpha virt. eigenvalues --    0.77658   0.78582   0.80134   0.80353   0.81497
 Alpha virt. eigenvalues --    0.81682   0.83504   0.83596   0.85058   0.87510
 Alpha virt. eigenvalues --    0.88322   0.88870   0.88907   0.91142   0.92250
 Alpha virt. eigenvalues --    0.92979   0.93625   0.94358   0.95311   0.95859
 Alpha virt. eigenvalues --    0.96362   0.96796   0.97031   0.97544   0.99527
 Alpha virt. eigenvalues --    1.00337   1.02218   1.03178   1.03510   1.04448
 Alpha virt. eigenvalues --    1.05503   1.06194   1.06574   1.07128   1.07922
 Alpha virt. eigenvalues --    1.08638   1.09349   1.10014   1.11265   1.12222
 Alpha virt. eigenvalues --    1.12367   1.12608   1.13706   1.14007   1.14386
 Alpha virt. eigenvalues --    1.15238   1.17108   1.17383   1.17651   1.18132
 Alpha virt. eigenvalues --    1.18425   1.18625   1.19125   1.19936   1.20264
 Alpha virt. eigenvalues --    1.20752   1.20967   1.21314   1.21984   1.23206
 Alpha virt. eigenvalues --    1.23964   1.24091   1.24891   1.26050   1.26344
 Alpha virt. eigenvalues --    1.27163   1.27939   1.30212   1.30742   1.31755
 Alpha virt. eigenvalues --    1.32580   1.34670   1.35251   1.36967   1.37485
 Alpha virt. eigenvalues --    1.40206   1.40823   1.41901   1.42846   1.43591
 Alpha virt. eigenvalues --    1.45757   1.46512   1.49031   1.50722   1.52402
 Alpha virt. eigenvalues --    1.54192   1.54651   1.57838   1.60274   1.61838
 Alpha virt. eigenvalues --    1.63773   1.64515   1.65627   1.66233   1.68181
 Alpha virt. eigenvalues --    1.68965   1.69712   1.72884   1.73881   1.75466
 Alpha virt. eigenvalues --    1.76975   1.78681   1.79133   1.82508   1.83197
 Alpha virt. eigenvalues --    1.86489   1.89072   1.89756   1.90353   1.93770
 Alpha virt. eigenvalues --    1.96059   1.98271   2.00017   2.00924   2.02664
 Alpha virt. eigenvalues --    2.03482   2.04488   2.06063   2.06641   2.07462
 Alpha virt. eigenvalues --    2.08779   2.09708   2.10565   2.11277   2.13039
 Alpha virt. eigenvalues --    2.13545   2.14985   2.15726   2.16426   2.18465
 Alpha virt. eigenvalues --    2.19765   2.21021   2.21411   2.22369   2.22598
 Alpha virt. eigenvalues --    2.23134   2.23948   2.25760   2.26720   2.27129
 Alpha virt. eigenvalues --    2.27662   2.28053   2.30245   2.33166   2.33256
 Alpha virt. eigenvalues --    2.35279   2.36701   2.37534   2.38084   2.39670
 Alpha virt. eigenvalues --    2.40839   2.41388   2.42200   2.43728   2.45738
 Alpha virt. eigenvalues --    2.45905   2.47020   2.50543   2.51770   2.52093
 Alpha virt. eigenvalues --    2.54871   2.56592   2.58337   2.60677   2.61438
 Alpha virt. eigenvalues --    2.63279   2.66681   2.67180   2.68322   2.69896
 Alpha virt. eigenvalues --    2.71579   2.72549   2.73465   2.74662   2.75424
 Alpha virt. eigenvalues --    2.78844   2.79944   2.80488   2.83444   2.85364
 Alpha virt. eigenvalues --    2.88467   2.88787   2.89392   2.91763   2.92540
 Alpha virt. eigenvalues --    2.94084   2.94354   2.97061   2.97614   3.00038
 Alpha virt. eigenvalues --    3.00562   3.01807   3.03959   3.08492   3.10752
 Alpha virt. eigenvalues --    3.12130   3.13098   3.15740   3.16907   3.18127
 Alpha virt. eigenvalues --    3.21702   3.23164   3.23990   3.26478   3.32911
 Alpha virt. eigenvalues --    3.38599   3.40380   3.43199   3.50789   3.53196
 Alpha virt. eigenvalues --    3.58386   3.58964   3.96201   4.11366   4.20055
 Alpha virt. eigenvalues --    4.25102   4.26237   4.27661   4.41054   4.42088
 Alpha virt. eigenvalues --    4.42901   4.48836   4.56743   4.59361   4.65234
 Alpha virt. eigenvalues --    4.67772   4.71874   4.80325   4.81399   4.85756
 Alpha virt. eigenvalues --    4.89644   4.92381   5.08857   5.10835
          Condensed to atoms (all electrons):
              1          2          3          4          5          6
     1  N    6.987102   0.685388  -0.108582   0.002905  -0.035850   0.000130
     2  C    0.685388   4.066276   0.174037  -0.042644   0.013386   0.003552
     3  N   -0.108582   0.174037   7.328964   0.243289  -0.098172  -0.092591
     4  N    0.002905  -0.042644   0.243289   5.355346   0.350529   0.352038
     5  O   -0.035850   0.013386  -0.098172   0.350529   8.295752  -0.113795
     6  O    0.000130   0.003552  -0.092591   0.352038  -0.113795   8.283445
     7  N   -0.088825   0.310183  -0.084601   0.000576  -0.000058  -0.000031
     8  C   -0.001508  -0.030350   0.002327  -0.000013   0.000010   0.000000
     9  C    0.000648   0.004137  -0.000012   0.000000   0.000000   0.000000
    10  C    0.000004  -0.000041   0.000000   0.000000   0.000000   0.000000
    11  C    0.000000   0.000001   0.000000   0.000000   0.000000   0.000000
    12  N    0.000000   0.000000   0.000000   0.000000   0.000000   0.000000
    13  C    0.000000   0.000000   0.000000   0.000000   0.000000   0.000000
    14  O    0.000000   0.000000   0.000000   0.000000   0.000000   0.000000
    15  N    0.000000   0.000000   0.000000   0.000000   0.000000   0.000000
    16  C    0.000000   0.000000   0.000000   0.000000   0.000000   0.000000
    17  C    0.000000   0.000000   0.000000   0.000000   0.000000   0.000000
    18  O    0.000000   0.000000   0.000000   0.000000   0.000000   0.000000
    19  N    0.000000   0.000000   0.000000   0.000000   0.000000   0.000000
    20  C    0.000000   0.000000   0.000000   0.000000   0.000000   0.000000
    21  C    0.000000   0.000000   0.000000   0.000000   0.000000   0.000000
    22  N    0.000000   0.000000   0.000000   0.000000   0.000000   0.000000
    23  H    0.327135  -0.038156  -0.009499  -0.000662   0.005176  -0.000321
    24  H    0.003051  -0.009647   0.311225  -0.014554   0.001762   0.003980
    25  H    0.002326  -0.028015  -0.000072  -0.000004   0.000006  -0.000001
    26  H    0.003323  -0.001652   0.000091   0.000000   0.000001   0.000000
    27  H    0.001825  -0.000811   0.000032   0.000003  -0.000002   0.000000
    28  H   -0.000016  -0.000193  -0.000006   0.000000   0.000000   0.000000
    29  H   -0.000019  -0.000164  -0.000005   0.000000   0.000000   0.000000
    30  H   -0.000004  -0.000006   0.000000   0.000000   0.000000   0.000000
    31  H   -0.000003  -0.000006   0.000000   0.000000   0.000000   0.000000
    32  H    0.000000   0.000000   0.000000   0.000000   0.000000   0.000000
    33  H    0.000000   0.000000   0.000000   0.000000   0.000000   0.000000
    34  H    0.000000   0.000000   0.000000   0.000000   0.000000   0.000000
    35  H    0.000000   0.000000   0.000000   0.000000   0.000000   0.000000
    36  H    0.000000   0.000000   0.000000   0.000000   0.000000   0.000000
    37  H    0.000000   0.000000   0.000000   0.000000   0.000000   0.000000
    38  H    0.000000   0.000000   0.000000   0.000000   0.000000   0.000000
    39  H    0.000000   0.000000   0.000000   0.000000   0.000000   0.000000
    40  H    0.000000   0.000000   0.000000   0.000000   0.000000   0.000000
    41  H    0.000000   0.000000   0.000000   0.000000   0.000000   0.000000
    42  H    0.000000   0.000000   0.000000   0.000000   0.000000   0.000000
    43  H    0.000000   0.000000   0.000000   0.000000   0.000000   0.000000
    44  H    0.000000   0.000000   0.000000   0.000000   0.000000   0.000000
              7          8          9         10         11         12
     1  N   -0.088825  -0.001508   0.000648   0.000004   0.000000   0.000000
     2  C    0.310183  -0.030350   0.004137  -0.000041   0.000001   0.000000
     3  N   -0.084601   0.002327  -0.000012   0.000000   0.000000   0.000000
     4  N    0.000576  -0.000013   0.000000   0.000000   0.000000   0.000000
     5  O   -0.000058   0.000010   0.000000   0.000000   0.000000   0.000000
     6  O   -0.000031   0.000000   0.000000   0.000000   0.000000   0.000000
     7  N    7.347810   0.187665  -0.044815   0.002940  -0.000068   0.000003
     8  C    0.187665   4.832425   0.343585  -0.055229   0.004323   0.000302
     9  C   -0.044815   0.343585   5.203610   0.337133  -0.054661  -0.012058
    10  C    0.002940  -0.055229   0.337133   5.205191   0.331292  -0.085121
    11  C   -0.000068   0.004323  -0.054661   0.331292   5.123428   0.315153
    12  N    0.000003   0.000302  -0.012058  -0.085121   0.315153   6.998721
    13  C    0.000000  -0.000045   0.004866  -0.055356   0.361667  -0.055084
    14  O    0.000000   0.000000  -0.000058  -0.001766  -0.075993  -0.004461
    15  N    0.000000   0.000001  -0.000107   0.001377  -0.110899   0.001531
    16  C    0.000000   0.000000   0.000003  -0.000240   0.004682  -0.000061
    17  C    0.000000   0.000000   0.000000   0.000019  -0.000178  -0.000001
    18  O    0.000000   0.000000   0.000004   0.000176  -0.000301   0.000001
    19  N    0.000000   0.000000   0.000000   0.000000  -0.000002   0.000000
    20  C    0.000000   0.000000   0.000000  -0.000002   0.000010   0.000000
    21  C    0.000000   0.000000   0.000000   0.000001  -0.000025   0.000000
    22  N    0.000000   0.000000   0.000000   0.000000   0.000000   0.000000
    23  H    0.005069  -0.000026   0.000002   0.000000   0.000000   0.000000
    24  H    0.002417  -0.000082  -0.000013   0.000000   0.000000   0.000000
    25  H    0.332911  -0.016508  -0.007265   0.000014  -0.000009  -0.000004
    26  H   -0.046867   0.414960  -0.043012  -0.001782  -0.000098   0.000018
    27  H   -0.047149   0.418566  -0.044709  -0.001938  -0.000106  -0.000013
    28  H   -0.001473  -0.036816   0.389895  -0.037556  -0.004032   0.000639
    29  H   -0.000775  -0.036575   0.382381  -0.039170  -0.005878   0.004253
    30  H   -0.000008  -0.002608  -0.042688   0.398212  -0.036609  -0.000751
    31  H    0.000021  -0.002749  -0.039732   0.383804  -0.039332   0.005128
    32  H   -0.000003  -0.000042  -0.006433  -0.048869   0.397096  -0.033769
    33  H    0.000000  -0.000023  -0.000475  -0.000844  -0.038910   0.329262
    34  H   -0.000009   0.000201  -0.001226  -0.001169  -0.049561   0.339810
    35  H    0.000000   0.000000  -0.000052   0.000433   0.000607   0.000001
    36  H    0.000000   0.000000   0.000000  -0.000013   0.000146   0.000002
    37  H    0.000000   0.000000   0.000000   0.000000   0.000000   0.000000
    38  H    0.000000   0.000000   0.000000   0.000000   0.000000   0.000000
    39  H    0.000000   0.000000   0.000000   0.000000   0.000001   0.000000
    40  H    0.000000   0.000000   0.000000  -0.000001  -0.000013   0.000000
    41  H    0.000000   0.000000   0.000000   0.000000  -0.000020  -0.000001
    42  H    0.000000   0.000000   0.000000   0.000000   0.000002   0.000000
    43  H    0.000000   0.000000   0.000000   0.000000   0.000000   0.000000
    44  H    0.000000   0.000000   0.000000   0.000000   0.000000   0.000000
             13         14         15         16         17         18
     1  N    0.000000   0.000000   0.000000   0.000000   0.000000   0.000000
     2  C    0.000000   0.000000   0.000000   0.000000   0.000000   0.000000
     3  N    0.000000   0.000000   0.000000   0.000000   0.000000   0.000000
     4  N    0.000000   0.000000   0.000000   0.000000   0.000000   0.000000
     5  O    0.000000   0.000000   0.000000   0.000000   0.000000   0.000000
     6  O    0.000000   0.000000   0.000000   0.000000   0.000000   0.000000
     7  N    0.000000   0.000000   0.000000   0.000000   0.000000   0.000000
     8  C   -0.000045   0.000000   0.000001   0.000000   0.000000   0.000000
     9  C    0.004866  -0.000058  -0.000107   0.000003   0.000000   0.000004
    10  C   -0.055356  -0.001766   0.001377  -0.000240   0.000019   0.000176
    11  C    0.361667  -0.075993  -0.110899   0.004682  -0.000178  -0.000301
    12  N   -0.055084  -0.004461   0.001531  -0.000061  -0.000001   0.000001
    13  C    4.133295   0.598684   0.269292  -0.034845   0.002337   0.007643
    14  O    0.598684   8.197379  -0.111355   0.006041   0.001190  -0.001247
    15  N    0.269292  -0.111355   7.355596   0.229407  -0.067504  -0.008829
    16  C   -0.034845   0.006041   0.229407   5.161728   0.349661  -0.087057
    17  C    0.002337   0.001190  -0.067504   0.349661   4.135147   0.632344
    18  O    0.007643  -0.001247  -0.008829  -0.087057   0.632344   8.164900
    19  N    0.000120  -0.000070   0.002463  -0.118586   0.296978  -0.105820
    20  C    0.002799   0.000739  -0.058052   0.310213  -0.055150  -0.000021
    21  C   -0.000016  -0.000068  -0.006988  -0.054534   0.003787  -0.000080
    22  N   -0.000001   0.000000   0.000130   0.003977  -0.000042   0.000000
    23  H    0.000000   0.000000   0.000000   0.000000   0.000000   0.000000
    24  H    0.000000   0.000000   0.000000   0.000000   0.000000   0.000000
    25  H    0.000000   0.000000   0.000000   0.000000   0.000000   0.000000
    26  H   -0.000002   0.000000   0.000000   0.000000   0.000000   0.000000
    27  H   -0.000009   0.000000  -0.000001   0.000000   0.000000   0.000000
    28  H   -0.000117  -0.000002   0.000016   0.000000   0.000000   0.000000
    29  H   -0.000171   0.000003  -0.000006   0.000000   0.000000   0.000000
    30  H   -0.003115   0.001211   0.000404  -0.000024   0.000015   0.000019
    31  H   -0.002149   0.000073   0.001293  -0.000115   0.000019   0.000701
    32  H   -0.041366   0.001900   0.004775  -0.000227   0.000010  -0.000003
    33  H   -0.007082   0.009068   0.000395  -0.000013   0.000000  -0.000001
    34  H    0.006583   0.000308  -0.000078   0.000002   0.000000   0.000000
    35  H   -0.016884   0.002787   0.327902  -0.024624   0.001344   0.000298
    36  H   -0.002491   0.008690  -0.031941   0.393115  -0.036168   0.000600
    37  H   -0.000022  -0.000002   0.000023   0.003726  -0.020788   0.003181
    38  H   -0.000003   0.000002  -0.000111   0.004792  -0.009406   0.005727
    39  H   -0.000013   0.000000   0.003824  -0.043111  -0.003009   0.000058
    40  H   -0.000098  -0.000008  -0.002384  -0.035985  -0.002954   0.000488
    41  H    0.000245  -0.000034   0.004990  -0.006459  -0.000023   0.000004
    42  H    0.000057  -0.000011   0.000377   0.001616  -0.000173  -0.000001
    43  H    0.000000   0.000000  -0.000005  -0.000222  -0.000007   0.000000
    44  H    0.000000   0.000000   0.000006  -0.000209   0.000002   0.000000
             19         20         21         22         23         24
     1  N    0.000000   0.000000   0.000000   0.000000   0.327135   0.003051
     2  C    0.000000   0.000000   0.000000   0.000000  -0.038156  -0.009647
     3  N    0.000000   0.000000   0.000000   0.000000  -0.009499   0.311225
     4  N    0.000000   0.000000   0.000000   0.000000  -0.000662  -0.014554
     5  O    0.000000   0.000000   0.000000   0.000000   0.005176   0.001762
     6  O    0.000000   0.000000   0.000000   0.000000  -0.000321   0.003980
     7  N    0.000000   0.000000   0.000000   0.000000   0.005069   0.002417
     8  C    0.000000   0.000000   0.000000   0.000000  -0.000026  -0.000082
     9  C    0.000000   0.000000   0.000000   0.000000   0.000002  -0.000013
    10  C    0.000000  -0.000002   0.000001   0.000000   0.000000   0.000000
    11  C   -0.000002   0.000010  -0.000025   0.000000   0.000000   0.000000
    12  N    0.000000   0.000000   0.000000   0.000000   0.000000   0.000000
    13  C    0.000120   0.002799  -0.000016  -0.000001   0.000000   0.000000
    14  O   -0.000070   0.000739  -0.000068   0.000000   0.000000   0.000000
    15  N    0.002463  -0.058052  -0.006988   0.000130   0.000000   0.000000
    16  C   -0.118586   0.310213  -0.054534   0.003977   0.000000   0.000000
    17  C    0.296978  -0.055150   0.003787  -0.000042   0.000000   0.000000
    18  O   -0.105820  -0.000021  -0.000080   0.000000   0.000000   0.000000
    19  N    7.191716   0.002110   0.000002   0.000001   0.000000   0.000000
    20  C    0.002110   5.214988   0.329665  -0.065461   0.000000   0.000000
    21  C    0.000002   0.329665   4.929147   0.273671   0.000000   0.000000
    22  N    0.000001  -0.065461   0.273671   7.047990   0.000000   0.000000
    23  H    0.000000   0.000000   0.000000   0.000000   0.337336  -0.000061
    24  H    0.000000   0.000000   0.000000   0.000000  -0.000061   0.274550
    25  H    0.000000   0.000000   0.000000   0.000000  -0.000102   0.002354
    26  H    0.000000   0.000000   0.000000   0.000000   0.000031  -0.000001
    27  H    0.000000   0.000000   0.000000   0.000000  -0.000100   0.000004
    28  H    0.000000   0.000000   0.000000   0.000000   0.000000   0.000001
    29  H    0.000000   0.000000   0.000000   0.000000   0.000000   0.000000
    30  H    0.000000   0.000000   0.000000   0.000000   0.000000   0.000000
    31  H    0.000001   0.000000   0.000000   0.000000   0.000000   0.000000
    32  H    0.000000  -0.000016  -0.000001   0.000000   0.000000   0.000000
    33  H    0.000000   0.000000   0.000000   0.000000   0.000000   0.000000
    34  H    0.000000   0.000000   0.000000   0.000000   0.000000   0.000000
    35  H   -0.000041  -0.002041  -0.000122  -0.000068   0.000000   0.000000
    36  H    0.003922  -0.032153  -0.005549  -0.000077   0.000000   0.000000
    37  H    0.320850   0.000402  -0.000085  -0.000001   0.000000   0.000000
    38  H    0.317047  -0.000166   0.000008   0.000000   0.000000   0.000000
    39  H    0.000714   0.398533  -0.036894  -0.001546   0.000000   0.000000
    40  H    0.000670   0.390129  -0.036288   0.002235   0.000000   0.000000
    41  H   -0.000007  -0.035378   0.403985  -0.038074   0.000000   0.000000
    42  H    0.000022  -0.057362   0.412200  -0.055102   0.000000   0.000000
    43  H   -0.000003  -0.005495  -0.036522   0.326261   0.000000   0.000000
    44  H    0.000000   0.006572  -0.039559   0.332880   0.000000   0.000000
             25         26         27         28         29         30
     1  N    0.002326   0.003323   0.001825  -0.000016  -0.000019  -0.000004
     2  C   -0.028015  -0.001652  -0.000811  -0.000193  -0.000164  -0.000006
     3  N   -0.000072   0.000091   0.000032  -0.000006  -0.000005   0.000000
     4  N   -0.000004   0.000000   0.000003   0.000000   0.000000   0.000000
     5  O    0.000006   0.000001  -0.000002   0.000000   0.000000   0.000000
     6  O   -0.000001   0.000000   0.000000   0.000000   0.000000   0.000000
     7  N    0.332911  -0.046867  -0.047149  -0.001473  -0.000775  -0.000008
     8  C   -0.016508   0.414960   0.418566  -0.036816  -0.036575  -0.002608
     9  C   -0.007265  -0.043012  -0.044709   0.389895   0.382381  -0.042688
    10  C    0.000014  -0.001782  -0.001938  -0.037556  -0.039170   0.398212
    11  C   -0.000009  -0.000098  -0.000106  -0.004032  -0.005878  -0.036609
    12  N   -0.000004   0.000018  -0.000013   0.000639   0.004253  -0.000751
    13  C    0.000000  -0.000002  -0.000009  -0.000117  -0.000171  -0.003115
    14  O    0.000000   0.000000   0.000000  -0.000002   0.000003   0.001211
    15  N    0.000000   0.000000  -0.000001   0.000016  -0.000006   0.000404
    16  C    0.000000   0.000000   0.000000   0.000000   0.000000  -0.000024
    17  C    0.000000   0.000000   0.000000   0.000000   0.000000   0.000015
    18  O    0.000000   0.000000   0.000000   0.000000   0.000000   0.000019
    19  N    0.000000   0.000000   0.000000   0.000000   0.000000   0.000000
    20  C    0.000000   0.000000   0.000000   0.000000   0.000000   0.000000
    21  C    0.000000   0.000000   0.000000   0.000000   0.000000   0.000000
    22  N    0.000000   0.000000   0.000000   0.000000   0.000000   0.000000
    23  H   -0.000102   0.000031  -0.000100   0.000000   0.000000   0.000000
    24  H    0.002354  -0.000001   0.000004   0.000001   0.000000   0.000000
    25  H    0.331087   0.002533   0.002286   0.001804   0.001820   0.000007
    26  H    0.002533   0.502844  -0.030295   0.004038  -0.003799   0.001807
    27  H    0.002286  -0.030295   0.499479  -0.003557   0.004152   0.000269
    28  H    0.001804   0.004038  -0.003557   0.548703  -0.030854   0.003744
    29  H    0.001820  -0.003799   0.004152  -0.030854   0.564691  -0.001251
    30  H    0.000007   0.001807   0.000269   0.003744  -0.001251   0.495888
    31  H    0.000007   0.000260   0.001688  -0.001533   0.004250  -0.016668
    32  H   -0.000001  -0.000007   0.000027   0.002232   0.001181   0.004002
    33  H    0.000000  -0.000009   0.000002   0.000020   0.000935   0.004082
    34  H   -0.000005   0.000035  -0.000012   0.000253   0.002611  -0.000220
    35  H    0.000000   0.000000  -0.000001   0.000000   0.000001  -0.000003
    36  H    0.000000   0.000000   0.000000   0.000000   0.000000  -0.000001
    37  H    0.000000   0.000000   0.000000   0.000000   0.000000   0.000000
    38  H    0.000000   0.000000   0.000000   0.000000   0.000000   0.000000
    39  H    0.000000   0.000000   0.000000   0.000000   0.000000   0.000000
    40  H    0.000000   0.000000   0.000000   0.000000   0.000000   0.000000
    41  H    0.000000   0.000000   0.000000   0.000000   0.000000   0.000000
    42  H    0.000000   0.000000   0.000000   0.000000   0.000000   0.000000
    43  H    0.000000   0.000000   0.000000   0.000000   0.000000   0.000000
    44  H    0.000000   0.000000   0.000000   0.000000   0.000000   0.000000
             31         32         33         34         35         36
     1  N   -0.000003   0.000000   0.000000   0.000000   0.000000   0.000000
     2  C   -0.000006   0.000000   0.000000   0.000000   0.000000   0.000000
     3  N    0.000000   0.000000   0.000000   0.000000   0.000000   0.000000
     4  N    0.000000   0.000000   0.000000   0.000000   0.000000   0.000000
     5  O    0.000000   0.000000   0.000000   0.000000   0.000000   0.000000
     6  O    0.000000   0.000000   0.000000   0.000000   0.000000   0.000000
     7  N    0.000021  -0.000003   0.000000  -0.000009   0.000000   0.000000
     8  C   -0.002749  -0.000042  -0.000023   0.000201   0.000000   0.000000
     9  C   -0.039732  -0.006433  -0.000475  -0.001226  -0.000052   0.000000
    10  C    0.383804  -0.048869  -0.000844  -0.001169   0.000433  -0.000013
    11  C   -0.039332   0.397096  -0.038910  -0.049561   0.000607   0.000146
    12  N    0.005128  -0.033769   0.329262   0.339810   0.000001   0.000002
    13  C   -0.002149  -0.041366  -0.007082   0.006583  -0.016884  -0.002491
    14  O    0.000073   0.001900   0.009068   0.000308   0.002787   0.008690
    15  N    0.001293   0.004775   0.000395  -0.000078   0.327902  -0.031941
    16  C   -0.000115  -0.000227  -0.000013   0.000002  -0.024624   0.393115
    17  C    0.000019   0.000010   0.000000   0.000000   0.001344  -0.036168
    18  O    0.000701  -0.000003  -0.000001   0.000000   0.000298   0.000600
    19  N    0.000001   0.000000   0.000000   0.000000  -0.000041   0.003922
    20  C    0.000000  -0.000016   0.000000   0.000000  -0.002041  -0.032153
    21  C    0.000000  -0.000001   0.000000   0.000000  -0.000122  -0.005549
    22  N    0.000000   0.000000   0.000000   0.000000  -0.000068  -0.000077
    23  H    0.000000   0.000000   0.000000   0.000000   0.000000   0.000000
    24  H    0.000000   0.000000   0.000000   0.000000   0.000000   0.000000
    25  H    0.000007  -0.000001   0.000000  -0.000005   0.000000   0.000000
    26  H    0.000260  -0.000007  -0.000009   0.000035   0.000000   0.000000
    27  H    0.001688   0.000027   0.000002  -0.000012  -0.000001   0.000000
    28  H   -0.001533   0.002232   0.000020   0.000253   0.000000   0.000000
    29  H    0.004250   0.001181   0.000935   0.002611   0.000001   0.000000
    30  H   -0.016668   0.004002   0.004082  -0.000220  -0.000003  -0.000001
    31  H    0.515825   0.001920   0.000091   0.000008   0.000616   0.000004
    32  H    0.001920   0.537802   0.005104  -0.003852   0.001289  -0.000023
    33  H    0.000091   0.005104   0.369579  -0.027001  -0.000010  -0.000003
    34  H    0.000008  -0.003852  -0.027001   0.396476  -0.000004   0.000000
    35  H    0.000616   0.001289  -0.000010  -0.000004   0.319269   0.002327
    36  H    0.000004  -0.000023  -0.000003   0.000000   0.002327   0.450285
    37  H    0.000000   0.000000   0.000000   0.000000   0.000000   0.000512
    38  H    0.000000   0.000000   0.000000   0.000000   0.000002  -0.000209
    39  H    0.000000   0.000000   0.000000   0.000000   0.000042  -0.000394
    40  H    0.000001   0.000001   0.000000   0.000000   0.002650   0.003558
    41  H   -0.000001   0.000079   0.000000   0.000000   0.000670   0.000021
    42  H    0.000000   0.000000   0.000000   0.000000   0.000025   0.002624
    43  H    0.000000   0.000000   0.000000   0.000000   0.000000   0.000007
    44  H    0.000000   0.000000   0.000000   0.000000   0.000004  -0.000007
             37         38         39         40         41         42
     1  N    0.000000   0.000000   0.000000   0.000000   0.000000   0.000000
     2  C    0.000000   0.000000   0.000000   0.000000   0.000000   0.000000
[...]
 **** Fit       0.001915
 **** Fit       0.003783
 **** Fit       0.006134
 **** Fit       0.009155
 **** Fit       0.012534
 **** Fit       0.006279
 **** Fit      -0.001849
 **** Fit       0.009660
 **** Fit       0.001686
 **** Fit       0.012998
 **** Fit       0.005515
 **** Fit       0.007829
 **** Fit       0.000717
 **** Fit       0.006278
 **** Fit       0.010761
 **** Fit       0.001151
 **** Fit       0.007372
 **** Fit       0.012809
 **** Fit       0.028149
 **** Fit       0.022285
 **** Fit       0.002774
 **** Fit       0.009327
 **** Fit       0.015495
 **** Fit       0.024699
 **** Fit       0.019072
 **** Fit      -0.001897
 **** Fit       0.005792
 **** Fit       0.012531
 **** Fit       0.018874
 **** Fit       0.023162
 **** Fit       0.018080
 **** Fit       0.012286
 **** Fit       0.005592
 **** Fit      -0.002527
 **** Fit      -0.005846
 **** Fit       0.002547
 **** Fit       0.010079
 **** Fit       0.016115
 **** Fit       0.019293
 **** Fit       0.018295
 **** Fit       0.013881
 **** Fit       0.007378
 **** Fit      -0.000664
 **** Fit      -0.000592
 **** Fit       0.007335
 **** Fit       0.011949
 **** Fit       0.009339
 **** Fit       0.001765
 **** Fit      -0.003939
 **** Fit       0.004500
 **** Fit       0.025161
 **** Fit       0.025732
 **** Fit       0.026805
 **** Fit       0.027411
 **** Fit       0.027100
 **** Fit       0.027180
 **** Fit       0.027646
 **** Fit       0.028447
 **** Fit       0.029457
 **** Fit       0.029387
 **** Fit       0.028972
 **** Fit       0.028640
 **** Fit       0.028505
 **** Fit       0.028618
 **** Fit       0.028978
 **** Fit       0.029528
 **** Fit       0.030142
 **** Fit       0.030629
 **** Fit       0.030802
 **** Fit       0.030615
 **** Fit       0.028978
 **** Fit       0.029359
 **** Fit       0.029421
 **** Fit       0.029379
 **** Fit       0.029388
 **** Fit       0.029528
 **** Fit       0.029809
 **** Fit       0.030163
 **** Fit       0.030453
 **** Fit       0.030504
 **** Fit       0.030184
 **** Fit       0.026183
 **** Fit       0.027720
 **** Fit       0.028737
 **** Fit       0.029305
 **** Fit       0.029597
 **** Fit       0.029783
 **** Fit       0.029967
 **** Fit       0.030170
 **** Fit       0.030323
 **** Fit       0.030288
 **** Fit       0.029914
 **** Fit       0.029117
 **** Fit       0.020428
 **** Fit       0.022156
 **** Fit       0.022427
 **** Fit       0.023431
 **** Fit       0.024969
 **** Fit       0.026619
 **** Fit       0.027992
 **** Fit       0.028933
 **** Fit       0.029501
 **** Fit       0.029842
 **** Fit       0.030048
 **** Fit       0.030100
 **** Fit       0.029878
 **** Fit       0.029238
 **** Fit       0.028124
 **** Fit       0.026633
 **** Fit       0.025002
 **** Fit       0.023557
 **** Fit       0.022569
 **** Fit       0.024245
 **** Fit       0.024711
 **** Fit       0.025966
 **** Fit       0.027453
 **** Fit       0.028629
 **** Fit       0.029330
 **** Fit       0.029618
 **** Fit       0.029476
 **** Fit       0.028769
 **** Fit       0.027483
 **** Fit       0.025947
 **** Fit       0.024720
 **** Fit       0.026081
 **** Fit       0.026855
 **** Fit       0.028199
 **** Fit       0.028799
 **** Fit       0.028241
 **** Fit       0.026853
 **** Fit       0.027611
 **** Fit      -0.002393
 **** Fit      -0.000746
 **** Fit       0.002735
 **** Fit       0.004070
 **** Fit       0.003649
 **** Fit      -0.000415
 **** Fit       0.004323
 **** Fit       0.007234
 **** Fit       0.008703
 **** Fit       0.008947
 **** Fit       0.008097
 **** Fit       0.000740
 **** Fit       0.005721
 **** Fit       0.009151
 **** Fit       0.011366
 **** Fit       0.012561
 **** Fit       0.012848
 **** Fit       0.012294
 **** Fit       0.010941
 **** Fit       0.002078
 **** Fit       0.006834
 **** Fit       0.010367
 **** Fit       0.012923
 **** Fit       0.014652
 **** Fit       0.015646
 **** Fit       0.015963
 **** Fit       0.015635
 **** Fit       0.014678
 **** Fit       0.013095
 **** Fit      -0.000584
 **** Fit       0.004790
 **** Fit       0.009007
 **** Fit       0.012292
 **** Fit       0.014791
 **** Fit       0.016598
 **** Fit       0.017778
 **** Fit       0.018373
 **** Fit       0.018408
 **** Fit       0.017894
 **** Fit       0.016832
 **** Fit       0.015211
 **** Fit       0.002737
 **** Fit       0.007120
 **** Fit       0.010775
 **** Fit       0.013769
 **** Fit       0.016159
 **** Fit       0.017991
 **** Fit       0.019301
 **** Fit       0.020118
 **** Fit       0.020461
 **** Fit       0.020340
 **** Fit       0.019760
 **** Fit       0.018718
 **** Fit       0.017198
 **** Fit       0.009412
 **** Fit       0.012581
 **** Fit       0.015281
 **** Fit       0.017511
 **** Fit       0.019283
 **** Fit       0.020613
 **** Fit       0.021516
 **** Fit       0.022007
 **** Fit       0.022097
 **** Fit       0.021796
 **** Fit       0.021107
 **** Fit       0.020028
 **** Fit       0.011845
 **** Fit       0.014692
 **** Fit       0.017158
 **** Fit       0.019215
 **** Fit       0.020859
 **** Fit       0.022094
 **** Fit       0.022934
 **** Fit       0.023394
 **** Fit       0.023489
 **** Fit       0.023238
 **** Fit       0.022658
 **** Fit       0.014085
 **** Fit       0.016729
 **** Fit       0.019020
 **** Fit       0.020924
 **** Fit       0.022433
 **** Fit       0.023555
 **** Fit       0.024307
 **** Fit       0.024718
 **** Fit       0.024821
 **** Fit       0.024665
 **** Fit       0.018485
 **** Fit       0.020626
 **** Fit       0.022405
 **** Fit       0.023821
 **** Fit       0.024893
 **** Fit       0.025658
 **** Fit       0.026174
 **** Fit       0.020926
 **** Fit       0.022937
 **** Fit       0.024591
 **** Fit       0.025924
 **** Fit       0.000676
 **** Fit       0.001186
 **** Fit       0.000964
 **** Fit      -0.000054
 **** Fit      -0.002106
 **** Fit       0.003221
 **** Fit       0.003636
 **** Fit       0.003432
 **** Fit       0.002668
 **** Fit       0.001243
 **** Fit       0.005816
 **** Fit       0.006240
 **** Fit       0.006158
 **** Fit       0.005740
 **** Fit       0.005041
 **** Fit       0.008650
 **** Fit       0.008947
 **** Fit       0.008933
 **** Fit       0.008840
 **** Fit       0.008860
 **** Fit       0.011416
 **** Fit       0.011683
 **** Fit       0.011679
 **** Fit       0.011706
 **** Fit       0.012013
 **** Fit       0.012957
 **** Fit       0.014797
 **** Fit       0.014498
 **** Fit       0.014307
 **** Fit       0.014473
 **** Fit       0.015312
 **** Fit       0.018585
 **** Fit       0.017502
 **** Fit       0.016867
 **** Fit       0.016815
 **** Fit       0.017600
 **** Fit       0.020798
 **** Fit       0.019425
 **** Fit       0.018913
 **** Fit       0.019338
 **** Fit       0.025193
 **** Fit       0.022345
 **** Fit       0.020932
 **** Fit       0.020682
 **** Fit       0.021593
 **** Fit       0.025752
 **** Fit       0.023063
 **** Fit       0.021891
 **** Fit       0.021848
 **** Fit       0.027600
 **** Fit       0.024189
 **** Fit       0.022512
 **** Fit       0.021780
 **** Fit       0.026661
 **** Fit       0.023464
 **** Fit       0.021615
 **** Fit       0.029678
 **** Fit       0.024725
 **** Fit      -0.006954
 **** Fit      -0.006135
 **** Fit      -0.006975
 **** Fit      -0.007224
 **** Fit      -0.007845
 **** Fit      -0.008107
 **** Fit      -0.006752
 **** Fit      -0.005184
 **** Fit      -0.006943
 **** Fit      -0.008366
 **** Fit      -0.008149
 **** Fit      -0.007465
 **** Fit      -0.007663
 **** Fit      -0.008910
 **** Fit      -0.010300
 **** Fit      -0.010451
 **** Fit      -0.008917
 **** Fit      -0.006696
 **** Fit      -0.005098
 **** Fit      -0.003729
 **** Fit      -0.006483
 **** Fit      -0.009944
 **** Fit      -0.011603
 **** Fit      -0.010792
 **** Fit      -0.008940
 **** Fit      -0.007559
 **** Fit      -0.007303
 **** Fit      -0.008251
 **** Fit      -0.010183
 **** Fit      -0.012516
 **** Fit      -0.014211
 **** Fit      -0.014228
 **** Fit      -0.012422
 **** Fit      -0.009647
 **** Fit      -0.006845
 **** Fit      -0.004535
 **** Fit      -0.003211
 **** Fit      -0.005059
 **** Fit      -0.011355
 **** Fit      -0.008521
 **** Fit      -0.007028
 **** Fit      -0.006867
 **** Fit      -0.007933
 **** Fit      -0.010144
 **** Fit      -0.013308
 **** Fit      -0.016857
 **** Fit      -0.019653
 **** Fit      -0.020366
 **** Fit      -0.018526
 **** Fit      -0.015015
 **** Fit      -0.011170
 **** Fit      -0.007744
 **** Fit      -0.004805
 **** Fit      -0.002267
 **** Fit      -0.000575
 **** Fit      -0.009115
 **** Fit      -0.006768
 **** Fit      -0.005974
 **** Fit      -0.006458
 **** Fit      -0.008156
 **** Fit      -0.011136
 **** Fit      -0.015453
 **** Fit      -0.013785
 **** Fit      -0.009550
 **** Fit      -0.006179
 **** Fit      -0.003032
 **** Fit      -0.006219
 **** Fit      -0.004951
 **** Fit      -0.004917
 **** Fit      -0.005978
 **** Fit      -0.008228
 **** Fit      -0.011931
 **** Fit      -0.008907
 **** Fit      -0.010877
 **** Fit      -0.007452
 **** Fit      -0.012114
 **** Fit      -0.010299
 **** Fit      -0.009082
 **** Fit      -0.010587
 **** Fit      -0.010326
 **** Fit      -0.010275
 **** Fit      -0.009300
 **** Fit      -0.009868
 **** Fit      -0.009791
 **** Fit      -0.010835
 **** Fit      -0.012253
 **** Fit      -0.012887
 **** Fit      -0.011426
 **** Fit      -0.007762
 **** Fit      -0.008867
 **** Fit      -0.011044
 **** Fit      -0.014061
 **** Fit      -0.017216
 **** Fit      -0.005540
 **** Fit      -0.007744
 **** Fit      -0.010829
 **** Fit      -0.015057
 **** Fit      -0.005004
 **** Fit      -0.008538
 **** Fit      -0.013082
 **** Fit      -0.001703
 **** Fit      -0.005716
 **** Fit      -0.010150
 **** Fit      -0.015869
 **** Fit      -0.001741
 **** Fit      -0.006199
 **** Fit      -0.011037
 **** Fit      -0.017157
 **** Fit      -0.000206
 **** Fit      -0.005048
 **** Fit      -0.009904
 **** Fit      -0.015569
 **** Fit      -0.003218
 **** Fit      -0.008133
 **** Fit      -0.013355
 **** Fit      -0.012072
 **** Fit      -0.017792
 **** Fit      -0.006200
 **** Fit      -0.011721
 **** Fit      -0.018871
 **** Fit       0.021101
 **** Fit       0.019270
 **** Fit       0.018091
 **** Fit       0.017180
 **** Fit       0.006763
 **** Fit       0.004737
 **** Fit       0.002179
 **** Fit      -0.001009
 **** Fit      -0.004903
 **** Fit      -0.009703
 **** Fit      -0.015865
 **** Fit       0.020477
 **** Fit       0.018818
 **** Fit       0.017093
 **** Fit       0.015655
 **** Fit       0.014420
 **** Fit       0.013118
 **** Fit       0.011553
 **** Fit       0.009760
 **** Fit       0.007896
 **** Fit       0.005991
 **** Fit       0.003879
 **** Fit       0.001337
 **** Fit      -0.001810
 **** Fit      -0.005725
 **** Fit      -0.010670
 **** Fit      -0.017105
 **** Fit       0.014354
 **** Fit       0.015025
 **** Fit       0.014390
 **** Fit       0.013305
 **** Fit       0.012109
 **** Fit       0.010795
 **** Fit       0.009272
 **** Fit       0.007537
 **** Fit       0.005622
 **** Fit       0.003470
 **** Fit       0.000923
 **** Fit      -0.002207
 **** Fit      -0.006110
 **** Fit      -0.011015
 **** Fit      -0.017158
 **** Fit      -0.008840
 **** Fit       0.000005
 **** Fit       0.006392
 **** Fit       0.009661
 **** Fit       0.010596
 **** Fit       0.010245
 **** Fit       0.009273
 **** Fit       0.007909
 **** Fit       0.006198
 **** Fit       0.004143
 **** Fit       0.001678
 **** Fit      -0.001347
 **** Fit      -0.005102
 **** Fit      -0.009677
 **** Fit      -0.014846
 **** Fit      -0.011688
 **** Fit      -0.007673
 **** Fit      -0.000948
 **** Fit       0.004342
 **** Fit       0.006665
 **** Fit       0.006773
 **** Fit       0.005605
 **** Fit       0.003583
 **** Fit       0.000806
 **** Fit      -0.002761
 **** Fit      -0.006967
 **** Fit      -0.010782
 **** Fit      -0.005248
 **** Fit      -0.001010
 **** Fit       0.002927
 **** Fit       0.002870
 **** Fit       0.000034
 **** Fit      -0.003920
 **** Fit      -0.000608
 **** Fit       0.000222
 **** Fit       0.000117
 **** Fit      -0.000172
 **** Fit       0.005220
 **** Fit       0.005003
 **** Fit       0.004767
 **** Fit       0.004465
 **** Fit       0.004078
 **** Fit       0.003608
 **** Fit       0.003082
 **** Fit       0.009438
 **** Fit       0.008902
 **** Fit       0.008445
 **** Fit       0.008002
 **** Fit       0.007541
 **** Fit       0.007058
 **** Fit       0.006572
 **** Fit       0.006135
 **** Fit       0.013314
 **** Fit       0.012421
 **** Fit       0.011737
 **** Fit       0.011156
 **** Fit       0.010618
 **** Fit       0.010099
 **** Fit       0.009598
 **** Fit       0.009144
 **** Fit       0.008795
 **** Fit       0.008654
 **** Fit       0.015764
 **** Fit       0.014735
 **** Fit       0.013932
 **** Fit       0.013252
 **** Fit       0.012639
 **** Fit       0.012070
 **** Fit       0.011552
 **** Fit       0.011121
 **** Fit       0.010849
 **** Fit       0.010859
 **** Fit       0.018258
 **** Fit       0.016962
 **** Fit       0.015968
 **** Fit       0.015152
 **** Fit       0.014440
 **** Fit       0.013798
 **** Fit       0.013222
 **** Fit       0.012741
 **** Fit       0.012423
 **** Fit       0.012378
 **** Fit       0.020060
 **** Fit       0.018620
 **** Fit       0.017495
 **** Fit       0.016575
 **** Fit       0.015781
 **** Fit       0.015072
 **** Fit       0.014435
 **** Fit       0.013892
 **** Fit       0.013495
 **** Fit       0.013326
 **** Fit       0.021620
 **** Fit       0.020055
 **** Fit       0.018761
 **** Fit       0.017690
 **** Fit       0.016772
 **** Fit       0.015953
 **** Fit       0.015215
 **** Fit       0.014568
 **** Fit       0.014054
 **** Fit       0.013734
 **** Fit       0.021836
 **** Fit       0.020696
 **** Fit       0.019477
 **** Fit       0.018360
 **** Fit       0.017360
 **** Fit       0.016450
 **** Fit       0.015609
 **** Fit       0.014841
 **** Fit       0.014166
 **** Fit       0.019869
 **** Fit       0.019089
 **** Fit       0.018102
 **** Fit       0.017094
 **** Fit       0.016107
 **** Fit       0.015148
 **** Fit       0.014219
 **** Fit       0.017984
 **** Fit       0.017808
 **** Fit       0.016952
 **** Fit       0.015844
 **** Fit       0.014636
 **** Fit       0.013357
 **** Fit       0.016167
 **** Fit       0.015243
 **** Fit       0.013677
 **** Fit       0.014317
 **** Fit      -0.005050
 **** Fit      -0.004599
 **** Fit      -0.004962
 **** Fit      -0.003081
 **** Fit      -0.001667
 **** Fit      -0.000893
 **** Fit      -0.000727
 **** Fit      -0.001147
 **** Fit      -0.002131
 **** Fit      -0.003622
 **** Fit      -0.000100
 **** Fit       0.001177
 **** Fit       0.002015
 **** Fit       0.002419
 **** Fit       0.002388
 **** Fit       0.001917
 **** Fit       0.001011
 **** Fit      -0.000305
 **** Fit      -0.001951
 **** Fit       0.002893
 **** Fit       0.003902
 **** Fit       0.004604
 **** Fit       0.004975
 **** Fit       0.004993
 **** Fit       0.004641
 **** Fit       0.003903
 **** Fit       0.002775
 **** Fit       0.001280
 **** Fit      -0.000484
 **** Fit       0.005489
 **** Fit       0.006204
 **** Fit       0.006734
 **** Fit       0.007032
 **** Fit       0.007059
 **** Fit       0.006786
 **** Fit       0.006186
 **** Fit       0.005239
 **** Fit       0.003935
 **** Fit       0.002295
 **** Fit       0.000424
 **** Fit       0.007528
 **** Fit       0.007964
 **** Fit       0.008354
 **** Fit       0.008613
 **** Fit       0.008684
 **** Fit       0.008520
 **** Fit       0.008085
 **** Fit       0.007348
 **** Fit       0.006282
 **** Fit       0.004870
 **** Fit       0.003122
 **** Fit       0.001126
 **** Fit       0.009500
 **** Fit       0.009587
 **** Fit       0.009760
 **** Fit       0.009890
 **** Fit       0.009885
 **** Fit       0.009681
 **** Fit       0.009227
 **** Fit       0.008480
 **** Fit       0.007404
 **** Fit       0.005968
 **** Fit       0.004159
 **** Fit       0.002013
 **** Fit       0.011051
 **** Fit       0.010888
 **** Fit       0.010850
 **** Fit       0.010781
 **** Fit       0.010576
 **** Fit       0.010156
 **** Fit       0.009463
 **** Fit       0.008443
 **** Fit       0.007053
 **** Fit       0.005254
 **** Fit       0.003034
 **** Fit       0.011999
 **** Fit       0.011651
 **** Fit       0.011431
 **** Fit       0.011173
 **** Fit       0.010766
 **** Fit       0.010122
 **** Fit       0.009176
 **** Fit       0.007870
 **** Fit       0.006153
 **** Fit       0.003983
 **** Fit       0.012289
 **** Fit       0.011819
 **** Fit       0.011409
 **** Fit       0.010883
 **** Fit       0.010115
 **** Fit       0.009011
 **** Fit       0.007494
 **** Fit       0.005502
 **** Fit       0.012034
 **** Fit       0.011432
 **** Fit       0.010771
 **** Fit       0.009876
 **** Fit       0.008619
 **** Fit       0.006912
 **** Fit       0.004715
 **** Fit       0.011580
 **** Fit       0.010767
 **** Fit       0.009791
 **** Fit       0.008451
 **** Fit       0.006646
 **** Fit       0.008717
 -----------------------------------------------------------------
 Leave Link  602 at Tue Apr  1 15:36:56 2014, MaxMem=   33554432 cpu:       2.5

 Test job not archived.
 1\1\GINC-HANA\FOpt\RHF\6-31G(d)\C10H22N8O4\PIEONG\01-Apr-2014\0\\#HF/6
 -31G* SCF=tight Test Pop=MK iop(6/33=2) iop(6/42=6) opt # iop(6/50=1)\
 \remark line goes here\\0,1\N,-4.7888630754,0.9042817128,1.7158568619\
 C,-4.8642866221,0.1607050757,0.7208028378\N,-6.0235982285,-0.342351286
 1,0.0615076376\N,-7.3018512318,-0.045287949,0.3729387666\O,-7.52262572
 16,0.9391884422,1.0048841364\O,-8.1138146771,-0.8055395719,-0.05673408
 65\N,-3.7660696692,-0.380873141,0.0846264312\C,-2.4444212122,-0.009495
 9999,0.5723003119\C,-1.3750204533,-0.8036992098,-0.170081618\C,0.03294
 18758,-0.4599249858,0.3188673521\C,1.1482578601,-1.2086471704,-0.43540
 03842\N,1.168309554,-2.6506286879,-0.2808101353\C,2.4926864312,-0.6997
 199054,0.0727582147\O,2.8959322489,-1.0225770643,1.1619305635\N,3.1630
 797925,0.1291403291,-0.7470662092\C,4.3805101205,0.8053194301,-0.36407
 71585\C,4.2860751444,2.2415868805,-0.8730027815\O,3.6198857599,2.52495
 40517,-1.8313639769\N,5.0327283121,3.1477010165,-0.209753669\C,5.64043
 87048,0.1411076335,-0.9479719556\C,5.8619817993,-1.2876046018,-0.45887
 28259\N,7.0741852716,-1.8230876677,-1.0617029366\H,-5.6764713839,1.154
 8787454,2.098116799\H,-5.9697585095,-1.2538399241,-0.3389950891\H,-3.8
 423772468,-0.3575964951,-0.9118791355\H,-2.4113708835,-0.228582584,1.6
 298033545\H,-2.2752318772,1.0583080187,0.4650563301\H,-1.4450774945,-0
 .6004600174,-1.238641035\H,-1.5781711903,-1.8618891962,-0.0367902376\H
 ,0.1253756837,-0.682006775,1.377883992\H,0.1941018512,0.6108032085,0.2
 072893019\H,1.0570121681,-0.9926419932,-1.4958209738\H,1.3773024867,-2
 .8889840772,0.6693511786\H,0.2918098363,-3.0628947135,-0.5296273046\H,
 2.7541946529,0.4248087819,-1.6053756311\H,4.431875276,0.796021594,0.71
 66101403\H,5.4930838628,2.9363668415,0.6443629263\H,5.0010517542,4.096
 4979257,-0.5091942164\H,6.5057599055,0.7470678,-0.6864384323\H,5.57597
 99506,0.1380982206,-2.0308879879\H,5.0333541488,-1.9096736661,-0.77118
 03209\H,5.8733062118,-1.3062708652,0.6310366658\H,7.8888539032,-1.3913
 546531,-0.6685913277\H,7.1519349103,-2.805203507,-0.8817243732\\Versio
 n=EM64L-G09RevC.01\State=1-A\HF=-1126.4049262\RMSD=8.159e-09\RMSF=7.13
 8e-06\Dipole=1.6000755,-0.0377036,0.0257509\Quadrupole=-8.346533,9.662
 9677,-1.3164348,17.0514432,18.1973772,2.5572861\PG=C01 [X(C10H22N8O4)]
 \\@


 WE ARE REACHING THE STAGE WHERE THE PROBLEMS WE MUST SOLVE ARE 
 GOING TO BECOME INSOLUBLE WITHOUT COMPUTERS.
 I DO NOT FEAR COMPUTERS.  I FEAR THE LACK OF THEM.

                                   -- ISSAC ASIMOV
 Job cpu time:  0 days  1 hours 35 minutes 49.3 seconds.
 File lengths (MBytes):  RWF=     92 Int=      0 D2E=      0 Chk=     12 Scr=      1
 Normal termination of Gaussian 09 at Tue Apr  1 15:36:56 2014.
