 Entering Gaussian System, Link 0=g09
 Input=DM0.com
 Output=DM0.log
 Initial command:
 /soft/gaussian/g09/l1.exe /scratch/pieong/Gau-18847.inp -scrdir=/scratch/pieong/
 Entering Link 1 = /soft/gaussian/g09/l1.exe PID=     18850.
  
 Copyright (c) 1988,1990,1992,1993,1995,1998,2003,2009,2011,
            Gaussian, Inc.  All Rights Reserved.
  
 This is part of the Gaussian(R) 09 program.  It is based on
 the Gaussian(R) 03 system (copyright 2003, Gaussian, Inc.),
 the Gaussian(R) 98 system (copyright 1998, Gaussian, Inc.),
 the Gaussian(R) 94 system (copyright 1995, Gaussian, Inc.),
 the Gaussian 92(TM) system (copyright 1992, Gaussian, Inc.),
 the Gaussian 90(TM) system (copyright 1990, Gaussian, Inc.),
 the Gaussian 88(TM) system (copyright 1988, Gaussian, Inc.),
 the Gaussian 86(TM) system (copyright 1986, Carnegie Mellon
 University), and the Gaussian 82(TM) system (copyright 1983,
 Carnegie Mellon University). Gaussian is a federally registered
 trademark of Gaussian, Inc.
  
 This software contains proprietary and confidential information,
 including trade secrets, belonging to Gaussian, Inc.
  
 This software is provided under written license and may be
 used, copied, transmitted, or stored only in accord with that
 written license.
  
 The following legend is applicable only to US Government
 contracts under FAR:
  
                    RESTRICTED RIGHTS LEGEND
  
 Use, reproduction and disclosure by the US Government is
 subject to restrictions as set forth in subparagraphs (a)
 and (c) of the Commercial Computer Software - Restricted
 Rights clause in FAR 52.227-19.
  
 Gaussian, Inc.
 340 Quinnipiac St., Bldg. 40, Wallingford CT 06492
  
  
 ---------------------------------------------------------------
 Warning -- This program may not be used in any manner that
 competes with the business of Gaussian, Inc. or will provide
 assistance to any competitor of Gaussian, Inc.  The licensee
 of this program is prohibited from giving any competitor of
 Gaussian, Inc. access to this program.  By using this program,
 the user acknowledges that Gaussian, Inc. is engaged in the
 business of creating and licensing software in the field of
 computational chemistry and represents and warrants to the
 licensee that it is not a competitor of Gaussian, Inc. and that
 it will not use this program in any manner prohibited above.
 ---------------------------------------------------------------
  

 Cite this work as:
 Gaussian 09, Revision C.01,
 M. J. Frisch, G. W. Trucks, H. B. Schlegel, G. E. Scuseria, 
 M. A. Robb, J. R. Cheeseman, G. Scalmani, V. Barone, B. Mennucci, 
 G. A. Petersson, H. Nakatsuji, M. Caricato, X. Li, H. P. Hratchian, 
 A. F. Izmaylov, J. Bloino, G. Zheng, J. L. Sonnenberg, M. Hada, 
 M. Ehara, K. Toyota, R. Fukuda, J. Hasegawa, M. Ishida, T. Nakajima, 
 Y. Honda, O. Kitao, H. Nakai, T. Vreven, J. A. Montgomery, Jr., 
 J. E. Peralta, F. Ogliaro, M. Bearpark, J. J. Heyd, E. Brothers, 
 K. N. Kudin, V. N. Staroverov, T. Keith, R. Kobayashi, J. Normand, 
 K. Raghavachari, A. Rendell, J. C. Burant, S. S. Iyengar, J. Tomasi, 
 M. Cossi, N. Rega, J. M. Millam, M. Klene, J. E. Knox, J. B. Cross, 
 V. Bakken, C. Adamo, J. Jaramillo, R. Gomperts, R. E. Stratmann, 
 O. Yazyev, A. J. Austin, R. Cammi, C. Pomelli, J. W. Ochterski, 
 R. L. Martin, K. Morokuma, V. G. Zakrzewski, G. A. Voth, 
 P. Salvador, J. J. Dannenberg, S. Dapprich, A. D. Daniels, 
 O. Farkas, J. B. Foresman, J. V. Ortiz, J. Cioslowski, 
 and D. J. Fox, Gaussian, Inc., Wallingford CT, 2010.
 
 ******************************************
 Gaussian 09:  EM64L-G09RevC.01 23-Sep-2011
                 1-Apr-2014 
 ******************************************
 %chk=molecule
 ----------------------------------------------------------------------
 #HF/6-31G* SCF=tight Test Pop=MK iop(6/33=2) iop(6/42=6) opt # iop(6/5
 0=1)
 ----------------------------------------------------------------------
 1/18=20,19=15,38=1/1,3;
 2/9=110,12=2,17=6,18=5,40=1/2;
 3/5=1,6=6,7=1,11=9,16=1,25=1,30=1,71=1/1,2,3;
 4//1;
 5/5=2,32=2,38=5/2;
 6/7=2,8=2,9=2,10=2,15=8,20=1,28=1,33=2,42=6,50=1/1,2;
 7//1,2,3,16;
 1/18=20,19=15/3(2);
 2/9=110/2;
 99//99;
 2/9=110/2;
 3/5=1,6=6,7=1,11=9,16=1,25=1,30=1,71=1/1,2,3;
 4/5=5,16=3/1;
 5/5=2,32=2,38=5/2;
 7//1,2,3,16;
 1/18=20,19=15/3(-5);
 2/9=110/2;
 6/7=2,8=2,9=2,10=2,15=8,19=2,20=1,28=1,33=2,42=6,50=1/1,2;
 99/9=1/99;
 ---------------------
 remark line goes here
 ---------------------
 Charge =  0 Multiplicity = 1
 Symbolic Z-Matrix:
 O                    -2.697    -2.242    -0.849 
 N                    -2.294     1.168     0.425 
 C                    -2.137     0.152    -0.625 
 C                    -0.715     0.214    -1.187 
 C                     0.291     0.009    -0.053 
 C                     1.707    -0.032    -0.629 
 C                     2.714    -0.237     0.505 
 N                     4.074    -0.277    -0.048 
 C                     4.449     1.025    -0.617 
 C                     5.043    -0.707     0.968 
 C                    -2.387    -1.215    -0.042 
 O                    -2.309    -1.387     1.152 
 C                    -1.906     2.497    -0.067 
 C                    -3.668     1.179     0.945 
 H                    -2.853     0.342    -1.424 
 H                    -0.586    -0.568    -1.934 
 H                    -0.549     1.188    -1.648 
 H                     0.211     0.832     0.657 
 H                     0.078    -0.931     0.456 
 H                     1.787    -0.855    -1.339 
 H                     1.92      0.908    -1.138 
 H                     2.634     0.586     1.215 
 H                     2.501    -1.178     1.014 
 H                     4.411     1.786     0.162 
 H                     5.46      0.967    -1.019 
 H                     3.754     1.286    -1.415 
 H                     4.781    -1.704     1.322 
 H                     6.042    -0.727     0.532 
 H                     5.027    -0.008     1.805 
 H                    -2.536     2.769    -0.914 
 H                    -2.032     3.23      0.73 
 H                    -0.863     2.477    -0.382 
 H                    -3.87      0.238     1.456 
 H                    -3.783     2.006     1.646 
 H                    -4.368     1.303     0.119 
 H                    -2.849    -3.1      -0.428 
 

 GradGradGradGradGradGradGradGradGradGradGradGradGradGradGradGradGradGrad
 Berny optimization.
 Initialization pass.
                           ----------------------------
                           !    Initial Parameters    !
                           ! (Angstroms and Degrees)  !
 --------------------------                            --------------------------
 ! Name  Definition              Value          Derivative Info.                !
 --------------------------------------------------------------------------------
 ! R1    R(1,11)                 1.3424         estimate D2E/DX2                !
 ! R2    R(1,36)                 0.9677         estimate D2E/DX2                !
 ! R3    R(2,3)                  1.4695         estimate D2E/DX2                !
 ! R4    R(2,13)                 1.4693         estimate D2E/DX2                !
 ! R5    R(2,14)                 1.4691         estimate D2E/DX2                !
 ! R6    R(3,4)                  1.5303         estimate D2E/DX2                !
 ! R7    R(3,11)                 1.507          estimate D2E/DX2                !
 ! R8    R(3,15)                 1.0896         estimate D2E/DX2                !
 ! R9    R(4,5)                  1.5297         estimate D2E/DX2                !
 ! R10   R(4,16)                 1.0891         estimate D2E/DX2                !
 ! R11   R(4,17)                 1.0903         estimate D2E/DX2                !
 ! R12   R(5,6)                  1.5292         estimate D2E/DX2                !
 ! R13   R(5,18)                 1.0899         estimate D2E/DX2                !
 ! R14   R(5,19)                 1.09           estimate D2E/DX2                !
 ! R15   R(6,7)                  1.5304         estimate D2E/DX2                !
 ! R16   R(6,20)                 1.0899         estimate D2E/DX2                !
 ! R17   R(6,21)                 1.09           estimate D2E/DX2                !
 ! R18   R(7,8)                  1.4687         estimate D2E/DX2                !
 ! R19   R(7,22)                 1.0899         estimate D2E/DX2                !
 ! R20   R(7,23)                 1.0908         estimate D2E/DX2                !
 ! R21   R(8,9)                  1.4696         estimate D2E/DX2                !
 ! R22   R(8,10)                 1.4684         estimate D2E/DX2                !
 ! R23   R(9,24)                 1.0897         estimate D2E/DX2                !
 ! R24   R(9,25)                 1.0895         estimate D2E/DX2                !
 ! R25   R(9,26)                 1.0899         estimate D2E/DX2                !
 ! R26   R(10,27)                1.0899         estimate D2E/DX2                !
 ! R27   R(10,28)                1.0902         estimate D2E/DX2                !
 ! R28   R(10,29)                1.0906         estimate D2E/DX2                !
 ! R29   R(11,12)                1.2088         estimate D2E/DX2                !
 ! R30   R(13,30)                1.0901         estimate D2E/DX2                !
 ! R31   R(13,31)                1.0901         estimate D2E/DX2                !
 ! R32   R(13,32)                1.0897         estimate D2E/DX2                !
 ! R33   R(14,33)                1.0897         estimate D2E/DX2                !
 ! R34   R(14,34)                1.0902         estimate D2E/DX2                !
 ! R35   R(14,35)                1.0898         estimate D2E/DX2                !
 ! A1    A(11,1,36)            116.9386         estimate D2E/DX2                !
 ! A2    A(3,2,13)             110.9712         estimate D2E/DX2                !
 ! A3    A(3,2,14)             110.9776         estimate D2E/DX2                !
 ! A4    A(13,2,14)            111.0214         estimate D2E/DX2                !
 ! A5    A(2,3,4)              109.4924         estimate D2E/DX2                !
 ! A6    A(2,3,11)             109.4518         estimate D2E/DX2                !
 ! A7    A(2,3,15)             109.4634         estimate D2E/DX2                !
 ! A8    A(4,3,11)             109.4497         estimate D2E/DX2                !
 ! A9    A(4,3,15)             109.5278         estimate D2E/DX2                !
 ! A10   A(11,3,15)            109.4423         estimate D2E/DX2                !
 ! A11   A(3,4,5)              109.4768         estimate D2E/DX2                !
 ! A12   A(3,4,16)             109.4426         estimate D2E/DX2                !
 ! A13   A(3,4,17)             109.4481         estimate D2E/DX2                !
 ! A14   A(5,4,16)             109.5321         estimate D2E/DX2                !
 ! A15   A(5,4,17)             109.453          estimate D2E/DX2                !
 ! A16   A(16,4,17)            109.4746         estimate D2E/DX2                !
 ! A17   A(4,5,6)              109.4702         estimate D2E/DX2                !
 ! A18   A(4,5,18)             109.479          estimate D2E/DX2                !
 ! A19   A(4,5,19)             109.4656         estimate D2E/DX2                !
 ! A20   A(6,5,18)             109.4869         estimate D2E/DX2                !
 ! A21   A(6,5,19)             109.4948         estimate D2E/DX2                !
 ! A22   A(18,5,19)            109.4308         estimate D2E/DX2                !
 ! A23   A(5,6,7)              109.4983         estimate D2E/DX2                !
 ! A24   A(5,6,20)             109.4869         estimate D2E/DX2                !
 ! A25   A(5,6,21)             109.4948         estimate D2E/DX2                !
 ! A26   A(7,6,20)             109.4674         estimate D2E/DX2                !
 ! A27   A(7,6,21)             109.4491         estimate D2E/DX2                !
 ! A28   A(20,6,21)            109.4308         estimate D2E/DX2                !
 ! A29   A(6,7,8)              109.5094         estimate D2E/DX2                !
 ! A30   A(6,7,22)             109.4674         estimate D2E/DX2                !
 ! A31   A(6,7,23)             109.4406         estimate D2E/DX2                !
 ! A32   A(8,7,22)             109.5013         estimate D2E/DX2                !
 ! A33   A(8,7,23)             109.4518         estimate D2E/DX2                !
 ! A34   A(22,7,23)            109.4569         estimate D2E/DX2                !
 ! A35   A(7,8,9)              110.9747         estimate D2E/DX2                !
 ! A36   A(7,8,10)             111.0099         estimate D2E/DX2                !
 ! A37   A(9,8,10)             111.0365         estimate D2E/DX2                !
 ! A38   A(8,9,24)             109.4537         estimate D2E/DX2                !
 ! A39   A(8,9,25)             109.4195         estimate D2E/DX2                !
 ! A40   A(8,9,26)             109.4467         estimate D2E/DX2                !
 ! A41   A(24,9,25)            109.4694         estimate D2E/DX2                !
 ! A42   A(24,9,26)            109.508          estimate D2E/DX2                !
 ! A43   A(25,9,26)            109.5299         estimate D2E/DX2                !
 ! A44   A(8,10,27)            109.5098         estimate D2E/DX2                !
 ! A45   A(8,10,28)            109.4734         estimate D2E/DX2                !
 ! A46   A(8,10,29)            109.4906         estimate D2E/DX2                !
 ! A47   A(27,10,28)           109.4745         estimate D2E/DX2                !
 ! A48   A(27,10,29)           109.4805         estimate D2E/DX2                !
 ! A49   A(28,10,29)           109.3984         estimate D2E/DX2                !
 ! A50   A(1,11,3)             119.9808         estimate D2E/DX2                !
 ! A51   A(1,11,12)            119.9881         estimate D2E/DX2                !
 ! A52   A(3,11,12)            120.0311         estimate D2E/DX2                !
 ! A53   A(2,13,30)            109.4667         estimate D2E/DX2                !
 ! A54   A(2,13,31)            109.4423         estimate D2E/DX2                !
 ! A55   A(2,13,32)            109.4476         estimate D2E/DX2                !
 ! A56   A(30,13,31)           109.481          estimate D2E/DX2                !
 ! A57   A(30,13,32)           109.4591         estimate D2E/DX2                !
 ! A58   A(31,13,32)           109.5305         estimate D2E/DX2                !
 ! A59   A(2,14,33)            109.444          estimate D2E/DX2                !
 ! A60   A(2,14,34)            109.3853         estimate D2E/DX2                !
 ! A61   A(2,14,35)            109.4695         estimate D2E/DX2                !
 ! A62   A(33,14,34)           109.5107         estimate D2E/DX2                !
 ! A63   A(33,14,35)           109.5494         estimate D2E/DX2                !
 ! A64   A(34,14,35)           109.4683         estimate D2E/DX2                !
 ! D1    D(36,1,11,3)         -179.9682         estimate D2E/DX2                !
 ! D2    D(36,1,11,12)           0.0041         estimate D2E/DX2                !
 ! D3    D(13,2,3,4)            53.4318         estimate D2E/DX2                !
 ! D4    D(13,2,3,11)          173.4064         estimate D2E/DX2                !
 ! D5    D(13,2,3,15)          -66.6457         estimate D2E/DX2                !
 ! D6    D(14,2,3,4)           177.3764         estimate D2E/DX2                !
 ! D7    D(14,2,3,11)          -62.649          estimate D2E/DX2                !
 ! D8    D(14,2,3,15)           57.2989         estimate D2E/DX2                !
 ! D9    D(3,2,13,30)           59.9992         estimate D2E/DX2                !
 ! D10   D(3,2,13,31)          179.9907         estimate D2E/DX2                !
 ! D11   D(3,2,13,32)          -59.9688         estimate D2E/DX2                !
 ! D12   D(14,2,13,30)         -63.9205         estimate D2E/DX2                !
 ! D13   D(14,2,13,31)          56.0711         estimate D2E/DX2                !
 ! D14   D(14,2,13,32)         176.1115         estimate D2E/DX2                !
 ! D15   D(3,2,14,33)           65.7696         estimate D2E/DX2                !
 ! D16   D(3,2,14,34)         -174.2513         estimate D2E/DX2                !
 ! D17   D(3,2,14,35)          -54.3084         estimate D2E/DX2                !
 ! D18   D(13,2,14,33)        -170.3145         estimate D2E/DX2                !
 ! D19   D(13,2,14,34)         -50.3353         estimate D2E/DX2                !
 ! D20   D(13,2,14,35)          69.6076         estimate D2E/DX2                !
 ! D21   D(2,3,4,5)             57.4607         estimate D2E/DX2                !
 ! D22   D(2,3,4,16)           177.5212         estimate D2E/DX2                !
 ! D23   D(2,3,4,17)           -62.5063         estimate D2E/DX2                !
 ! D24   D(11,3,4,5)           -62.5153         estimate D2E/DX2                !
 ! D25   D(11,3,4,16)           57.5452         estimate D2E/DX2                !
 ! D26   D(11,3,4,17)          177.5177         estimate D2E/DX2                !
 ! D27   D(15,3,4,5)           177.4988         estimate D2E/DX2                !
 ! D28   D(15,3,4,16)          -62.4407         estimate D2E/DX2                !
 ! D29   D(15,3,4,17)           57.5318         estimate D2E/DX2                !
 ! D30   D(2,3,11,1)           159.9818         estimate D2E/DX2                !
 ! D31   D(2,3,11,12)          -19.9905         estimate D2E/DX2                !
 ! D32   D(4,3,11,1)           -80.0174         estimate D2E/DX2                !
 ! D33   D(4,3,11,12)          100.0103         estimate D2E/DX2                !
 ! D34   D(15,3,11,1)           40.021          estimate D2E/DX2                !
 ! D35   D(15,3,11,12)        -139.9513         estimate D2E/DX2                !
 ! D36   D(3,4,5,6)            175.863          estimate D2E/DX2                !
 ! D37   D(3,4,5,18)           -64.1137         estimate D2E/DX2                !
 ! D38   D(3,4,5,19)            55.8381         estimate D2E/DX2                !
 ! D39   D(16,4,5,6)            55.8572         estimate D2E/DX2                !
 ! D40   D(16,4,5,18)          175.8806         estimate D2E/DX2                !
 ! D41   D(16,4,5,19)          -64.1676         estimate D2E/DX2                !
 ! D42   D(17,4,5,6)           -64.173          estimate D2E/DX2                !
 ! D43   D(17,4,5,18)           55.8503         estimate D2E/DX2                !
 ! D44   D(17,4,5,19)          175.8021         estimate D2E/DX2                !
 ! D45   D(4,5,6,7)            179.997          estimate D2E/DX2                !
 ! D46   D(4,5,6,20)           -59.9815         estimate D2E/DX2                !
 ! D47   D(4,5,6,21)            59.9931         estimate D2E/DX2                !
 ! D48   D(18,5,6,7)            59.9785         estimate D2E/DX2                !
 ! D49   D(18,5,6,20)          180.0            estimate D2E/DX2                !
 ! D50   D(18,5,6,21)          -60.0254         estimate D2E/DX2                !
 ! D51   D(19,5,6,7)           -59.9961         estimate D2E/DX2                !
 ! D52   D(19,5,6,20)           60.0254         estimate D2E/DX2                !
 ! D53   D(19,5,6,21)         -180.0            estimate D2E/DX2                !
 ! D54   D(5,6,7,8)            179.9755         estimate D2E/DX2                !
 ! D55   D(5,6,7,22)           -59.9666         estimate D2E/DX2                !
 ! D56   D(5,6,7,23)            59.9948         estimate D2E/DX2                !
 ! D57   D(20,6,7,8)            59.9421         estimate D2E/DX2                !
 ! D58   D(20,6,7,22)         -180.0            estimate D2E/DX2                !
 ! D59   D(20,6,7,23)          -60.0387         estimate D2E/DX2                !
 ! D60   D(21,6,7,8)           -59.9925         estimate D2E/DX2                !
 ! D61   D(21,6,7,22)           60.0654         estimate D2E/DX2                !
 ! D62   D(21,6,7,23)         -179.9733         estimate D2E/DX2                !
 ! D63   D(6,7,8,9)             66.054          estimate D2E/DX2                !
 ! D64   D(6,7,8,10)          -169.956          estimate D2E/DX2                !
 ! D65   D(22,7,8,9)           -53.9831         estimate D2E/DX2                !
 ! D66   D(22,7,8,10)           70.0069         estimate D2E/DX2                !
 ! D67   D(23,7,8,9)          -173.9721         estimate D2E/DX2                !
 ! D68   D(23,7,8,10)          -49.9821         estimate D2E/DX2                !
 ! D69   D(7,8,9,24)            60.0384         estimate D2E/DX2                !
 ! D70   D(7,8,9,25)           179.9939         estimate D2E/DX2                !
 ! D71   D(7,8,9,26)           -59.9809         estimate D2E/DX2                !
 ! D72   D(10,8,9,24)          -63.9364         estimate D2E/DX2                !
 ! D73   D(10,8,9,25)           56.019          estimate D2E/DX2                !
 ! D74   D(10,8,9,26)          176.0443         estimate D2E/DX2                !
 ! D75   D(7,8,10,27)           60.0188         estimate D2E/DX2                !
 ! D76   D(7,8,10,28)         -179.9522         estimate D2E/DX2                !
 ! D77   D(7,8,10,29)          -60.0281         estimate D2E/DX2                !
 ! D78   D(9,8,10,27)         -176.0264         estimate D2E/DX2                !
 ! D79   D(9,8,10,28)          -55.9974         estimate D2E/DX2                !
 ! D80   D(9,8,10,29)           63.9267         estimate D2E/DX2                !
 --------------------------------------------------------------------------------
 Trust Radius=3.00D-01 FncErr=1.00D-07 GrdErr=1.00D-07
 Number of steps in this run=    189 maximum allowed number of steps=    216.
 GradGradGradGradGradGradGradGradGradGradGradGradGradGradGradGradGradGrad

                          Input orientation:                          
 ---------------------------------------------------------------------
 Center     Atomic      Atomic             Coordinates (Angstroms)
 Number     Number       Type             X           Y           Z
 ---------------------------------------------------------------------
      1          8           0       -2.697000   -2.242000   -0.849000
      2          7           0       -2.294000    1.168000    0.425000
      3          6           0       -2.137000    0.152000   -0.625000
      4          6           0       -0.715000    0.214000   -1.187000
      5          6           0        0.291000    0.009000   -0.053000
      6          6           0        1.707000   -0.032000   -0.629000
      7          6           0        2.714000   -0.237000    0.505000
      8          7           0        4.074000   -0.277000   -0.048000
      9          6           0        4.449000    1.025000   -0.617000
     10          6           0        5.043000   -0.707000    0.968000
     11          6           0       -2.387000   -1.215000   -0.042000
     12          8           0       -2.309000   -1.387000    1.152000
     13          6           0       -1.906000    2.497000   -0.067000
     14          6           0       -3.668000    1.179000    0.945000
     15          1           0       -2.853000    0.342000   -1.424000
     16          1           0       -0.586000   -0.568000   -1.934000
     17          1           0       -0.549000    1.188000   -1.648000
     18          1           0        0.211000    0.832000    0.657000
     19          1           0        0.078000   -0.931000    0.456000
     20          1           0        1.787000   -0.855000   -1.339000
     21          1           0        1.920000    0.908000   -1.138000
     22          1           0        2.634000    0.586000    1.215000
     23          1           0        2.501000   -1.178000    1.014000
     24          1           0        4.411000    1.786000    0.162000
     25          1           0        5.460000    0.967000   -1.019000
     26          1           0        3.754000    1.286000   -1.415000
     27          1           0        4.781000   -1.704000    1.322000
     28          1           0        6.042000   -0.727000    0.532000
     29          1           0        5.027000   -0.008000    1.805000
     30          1           0       -2.536000    2.769000   -0.914000
     31          1           0       -2.032000    3.230000    0.730000
     32          1           0       -0.863000    2.477000   -0.382000
     33          1           0       -3.870000    0.238000    1.456000
     34          1           0       -3.783000    2.006000    1.646000
     35          1           0       -4.368000    1.303000    0.119000
     36          1           0       -2.849000   -3.100000   -0.428000
 ---------------------------------------------------------------------
                    Distance matrix (angstroms):
                    1          2          3          4          5
     1  O    0.000000
     2  N    3.662456   0.000000
     3  C    2.468808   1.469491   0.000000
     4  C    3.174036   2.449878   1.530285   0.000000
     5  C    3.824756   2.872976   2.498563   1.529711   0.000000
     6  C    4.932313   4.308006   3.848403   2.497592   1.529220
     7  C    5.927247   5.201970   4.996041   3.850235   2.498561
     8  N    7.095722   6.546998   6.252479   4.947012   3.793799
     9  C    7.860816   6.824534   6.643613   5.258281   4.317327
    10  C    8.097241   7.592236   7.404588   6.216657   4.912901
    11  C    1.342415   2.430108   1.507010   2.479647   2.944483
    12  O    2.210333   2.656460   2.357082   3.251916   3.187607
    13  C    4.867785   1.469302   2.421518   2.808019   3.319209
    14  C    3.983029   1.469148   2.421485   3.767872   4.247186
    15  H    2.651795   2.100847   1.089567   2.154901   3.446051
    16  H    2.904449   3.390552   2.153481   1.089116   2.154117
    17  H    4.125192   2.709752   2.154430   1.090300   2.153988
    18  H    4.491545   2.538059   2.760259   2.154005   1.089876
    19  H    3.335022   3.167514   2.692151   2.153909   1.089977
    20  H    4.719123   4.884546   4.113590   2.725045   2.153673
    21  H    5.596670   4.502040   4.158600   2.725300   2.153849
    22  H    6.377871   5.024740   5.131900   4.138090   2.725876
    23  H    5.623350   5.370536   5.095710   4.138203   2.726088
    24  H    8.232288   6.738555   6.794529   5.528731   4.492032
    25  H    8.767168   7.889870   7.650743   6.223010   5.345043
    26  H    7.374452   6.322802   6.050945   4.601427   3.934227
    27  H    7.805330   7.688213   7.422551   6.338755   4.998509
    28  H    8.976219   8.549349   8.307065   7.035445   5.827343
    29  H    8.467269   7.542176   7.566597   6.478573   5.087450
    30  H    5.014007   2.101115   2.662970   3.149380   4.043618
    31  H    5.733956   2.100836   3.364689   3.808626   4.047747
    32  H    5.084349   2.100593   2.662283   2.406470   2.744263
    33  H    3.583204   2.100390   2.709473   4.115829   4.432092
    34  H    5.044792   2.100049   3.362153   4.544203   4.844800
    35  H    4.036866   2.100794   2.618339   4.029388   4.838419
    36  H    0.967734   4.387648   3.334855   4.014054   4.434648
                    6          7          8          9         10
     6  C    0.000000
     7  C    1.530369   0.000000
     8  N    2.449546   1.468676   0.000000
     9  C    2.938700   2.421106   1.469554   0.000000
    10  C    3.759645   2.420642   1.468372   2.421752   0.000000
    11  C    4.301732   5.222633   6.528737   7.216587   7.515522
    12  O    4.597417   5.193423   6.588990   7.390377   7.385673
    13  C    4.445836   5.398735   6.592104   6.546397   7.721751
    14  C    5.730150   6.551991   7.940060   8.267360   8.912858
    15  H    4.643867   5.920116   7.089419   7.378139   8.316783
    16  H    2.692243   4.116829   5.035601   5.442735   6.334553
    17  H    2.759764   4.160914   5.106697   5.105833   6.457937
    18  H    2.153673   2.725963   4.080401   4.429556   5.080695
    19  H    2.153849   2.726267   4.080410   4.907434   4.996353
    20  H    1.089876   2.154435   2.689077   3.337953   3.993205
    21  H    1.089977   2.154277   2.689245   2.584757   4.098364
    22  H    2.154435   1.089876   2.100842   2.615945   2.745203
    23  H    2.154809   1.090840   2.100946   3.362748   2.585676
    24  H    3.352972   2.662703   2.100866   1.089682   2.695201
    25  H    3.903218   3.363437   2.100327   1.089536   2.631413
    26  H    2.558345   2.662241   2.100966   1.089931   3.363370
    27  H    4.006427   2.663094   2.100733   3.364132   1.089940
    28  H    4.541274   3.363988   2.100458   2.631987   1.090182
    29  H    4.116714   2.663158   2.100995   2.695785   1.090608
    30  H    5.092139   6.213863   7.329405   7.205551   8.547850
    31  H    5.144672   5.881771   7.084319   6.977091   8.100138
    32  H    3.600137   4.576843   5.663042   5.511885   6.844063
    33  H    5.960122   6.669264   8.101505   8.609440   8.976232
    34  H    6.282449   6.967348   8.355488   8.593565   9.258419
    35  H    6.264771   7.257777   8.590207   8.852032   9.660633
    36  H    5.496377   6.325680   7.486098   8.385234   8.364145
                   11         12         13         14         15
    11  C    0.000000
    12  O    1.208844   0.000000
    13  C    3.743118   4.090700   0.000000
    14  C    2.889008   2.911028   2.421964   0.000000
    15  H    2.133384   3.149786   2.717036   2.641393   0.000000
    16  H    2.691073   3.628069   3.823913   4.565016   2.495494
    17  H    3.425185   4.191447   2.460588   4.056093   2.464611
    18  H    3.380594   3.394022   2.788923   3.905124   3.736142
    19  H    2.530787   2.527869   3.995118   4.327093   3.707518
    20  H    4.385668   4.823414   5.147051   6.253866   4.792665
    21  H    4.925301   5.328749   4.279046   5.969763   4.814944
    22  H    5.480337   5.322588   5.089896   6.335594   6.093523
    23  H    5.000905   4.816516   5.839164   6.604299   6.076147
    24  H    7.433735   7.497095   6.361010   8.139520   7.574050
    25  H    8.203113   8.403090   7.583216   9.339305   8.346294
    26  H    6.771411   7.105940   5.942998   7.788911   6.674104
    27  H    7.312991   7.099119   8.018335   8.935291   8.366874
    28  H    8.462604   8.399952   8.597888   9.903914   9.170045
    29  H    7.735351   7.492993   7.605649   8.817686   8.523106
    30  H    4.081034   4.646743   1.090089   2.695442   2.500184
    31  H    4.525487   4.644513   1.090126   2.632361   3.695173
    32  H    4.008621   4.401655   1.089713   3.363593   3.099046
    33  H    2.560176   2.273711   3.358557   1.089682   3.056060
    34  H    3.895254   3.732179   2.588161   1.090209   3.613682
    35  H    3.207897   3.541563   2.742567   1.089794   2.366346
    36  H    1.978804   2.392147   5.687353   4.567902   3.583210
                   16         17         18         19         20
    16  H    0.000000
    17  H    1.779523   0.000000
    18  H    3.050982   2.453031   0.000000
    19  H    2.506943   3.051247   1.779398   0.000000
    20  H    2.463234   3.118690   3.051846   2.479613   0.000000
    21  H    3.015332   2.536624   2.479613   3.052167   1.779398
    22  H    4.649335   4.323270   2.498561   3.067655   3.052344
    23  H    4.311887   4.688998   3.067841   2.498660   2.480067
    24  H    5.908007   5.313690   4.335336   5.122833   4.014132
    25  H    6.304567   6.045872   5.511733   5.894400   4.112543
    26  H    4.747871   4.310418   4.129425   4.682810   2.908392
    27  H    6.379398   6.752293   5.268626   4.844140   4.094601
    28  H    7.073671   7.201452   6.037108   5.967972   4.649952
    29  H    6.767532   6.666738   5.021689   5.211941   4.593446
    30  H    3.997308   2.643196   3.710259   4.732853   5.657060
    31  H    4.859281   3.467555   3.284324   4.673446   5.962612
    32  H    3.428915   1.833814   2.222391   3.633482   4.363551
    33  H    4.788151   4.643959   4.200690   4.237129   6.403774
    34  H    5.446346   4.688104   4.278835   4.994936   6.936890
    35  H    4.692438   4.209546   4.634493   4.987107   6.683319
    36  H    3.714866   5.016507   5.099162   3.748779   5.230912
                   21         22         23         24         25
    21  H    0.000000
    22  H    2.479937   0.000000
    23  H    3.052877   1.780389   0.000000
    24  H    2.943801   2.388836   3.627575   0.000000
    25  H    3.542491   3.622457   4.182080   1.779304   0.000000
    26  H    1.892926   2.943009   3.679857   1.780050   1.780172
    27  H    4.589059   3.140885   2.360072   3.696295   3.616015
    28  H    4.738461   3.715498   3.602000   3.018647   2.369380
    29  H    4.376500   2.535229   2.894004   2.509450   3.018789
    30  H    4.834194   6.002252   6.683365   7.098230   8.197210
    31  H    4.949688   5.384934   6.329234   6.627217   8.019366
    32  H    3.283045   4.284308   5.159878   5.346821   6.531937
    33  H    6.379799   6.517760   6.541411   8.523245   9.680184
    34  H    6.440533   6.586353   7.072902   8.330204   9.675474
    35  H    6.424564   7.123434   7.357958   8.792382   9.899370
    36  H    6.269890   6.808035   5.864806   8.770901   9.269803
                   26         27         28         29         30
    26  H    0.000000
    27  H    4.181626   0.000000
    28  H    3.616341   1.780098   0.000000
    29  H    3.696399   1.780511   1.779808   0.000000
    30  H    6.481851   8.862613   9.375234   8.503156   0.000000
    31  H    6.469773   8.432781   8.993694   7.840265   1.780245
    32  H    4.878756   7.227663   7.666814   6.756500   1.779668
    33  H    8.213788   8.867306  10.001637   8.907240   3.715160
    34  H    8.166669   9.338692  10.258699   9.038671   2.948013
    35  H    8.265611   9.705331  10.614121   9.634695   2.563683
    36  H    7.988165   7.951617   9.252168   8.750893   5.897400
                   31         32         33         34         35
    31  H    0.000000
    32  H    1.780481   0.000000
    33  H    3.585719   4.175334   0.000000
    34  H    2.324486   3.586227   1.780307   0.000000
    35  H    3.089263   3.730188   1.780393   1.779933   0.000000
    36  H    6.486706   5.920240   3.966628   5.589729   4.689667
                   36
    36  H    0.000000
 Stoichiometry    C10H22N2O2
 Framework group  C1[X(C10H22N2O2)]
 Deg. of freedom   102
 Full point group                 C1      NOp   1
 Largest Abelian subgroup         C1      NOp   1
 Largest concise Abelian subgroup C1      NOp   1
                         Standard orientation:                         
 ---------------------------------------------------------------------
 Center     Atomic      Atomic             Coordinates (Angstroms)
 Number     Number       Type             X           Y           Z
 ---------------------------------------------------------------------
      1          8           0       -2.736659   -2.311033   -0.865164
      2          7           0       -2.368369    1.088057    0.447897
      3          6           0       -2.203184    0.086382   -0.614537
      4          6           0       -0.783780    0.171219   -1.180103
      5          6           0        0.228095   -0.035676   -0.051688
      6          6           0        1.642626   -0.053728   -0.632455
      7          6           0        2.655500   -0.260612    0.495958
      8          7           0        4.014097   -0.278575   -0.061628
      9          6           0        4.372464    1.034243   -0.616310
     10          6           0        4.991155   -0.709468    0.946245
     11          6           0       -2.435776   -1.290167   -0.047008
     12          8           0       -2.352021   -1.475354    1.144628
     13          6           0       -1.997065    2.427111   -0.029511
     14          6           0       -3.740741    1.077254    0.972184
     15          1           0       -2.923841    0.277630   -1.409041
     16          1           0       -0.648285   -0.600384   -1.936703
     17          1           0       -0.630327    1.152424   -1.630040
     18          1           0        0.141013    0.777917    0.668250
     19          1           0        0.027413   -0.983988    0.446791
     20          1           0        1.729708   -0.867322   -1.352393
     21          1           0        1.843308    0.894583   -1.130934
     22          1           0        2.568419    0.552981    1.215896
     23          1           0        2.454830   -1.209924    0.994425
     24          1           0        4.328303    1.785509    0.171761
     25          1           0        5.382771    0.992522   -1.022054
     26          1           0        3.672002    1.296709   -1.409037
     27          1           0        4.741629   -1.713500    1.289210
     28          1           0        5.988922   -0.712930    0.506990
     29          1           0        4.969882   -0.020628    1.791510
     30          1           0       -2.632812    2.701894   -0.871303
     31          1           0       -2.128844    3.149165    0.776495
     32          1           0       -0.954915    2.422722   -0.347909
     33          1           0       -3.930406    0.128044    1.472617
     34          1           0       -3.862894    1.894554    1.683277
     35          1           0       -4.444735    1.203011    0.149852
     36          1           0       -2.877558   -3.175622   -0.453893
 ---------------------------------------------------------------------
 Rotational constants (GHZ):      1.1542247      0.2692529      0.2438601
 Standard basis: 6-31G(d) (6D, 7F)
 There are   254 symmetry adapted basis functions of A   symmetry.
 Integral buffers will be    131072 words long.
 Raffenetti 1 integral format.
 Two-electron integral symmetry is turned on.
   254 basis functions,   480 primitive gaussians,   254 cartesian basis functions
    56 alpha electrons       56 beta electrons
       nuclear repulsion energy       972.0377272378 Hartrees.
 NAtoms=   36 NActive=   36 NUniq=   36 SFac= 1.00D+00 NAtFMM=   60 NAOKFM=F Big=F
 One-electron integrals computed using PRISM.
 NBasis=   254 RedAO= T  NBF=   254
 NBsUse=   254 1.00D-06 NBFU=   254
 Harris functional with IExCor=  205 diagonalized for initial guess.
 ExpMin= 1.61D-01 ExpMax= 5.48D+03 ExpMxC= 8.25D+02 IAcc=1 IRadAn=         1 AccDes= 0.00D+00
 HarFok:  IExCor=  205 AccDes= 0.00D+00 IRadAn=         1 IDoV= 1
 ScaDFX=  1.000000  1.000000  1.000000  1.000000
 FoFCou: FMM=F IPFlag=           0 FMFlag=      100000 FMFlg1=           0
         NFxFlg=           0 DoJE=T BraDBF=F KetDBF=T FulRan=T
         Omega=  0.000000  0.000000  1.000000  0.000000  0.000000 ICntrl=     500 IOpCl=  0
         NMat0=    1 NMatS0=    1 NMatT0=    0 NMatD0=    1 NMtDS0=    0 NMtDT0=    0
         I1Cent=           4 NGrid=           0.
 Petite list used in FoFCou.
 Initial guess orbital symmetries:
       Occupied  (A) (A) (A) (A) (A) (A) (A) (A) (A) (A) (A) (A)
                 (A) (A) (A) (A) (A) (A) (A) (A) (A) (A) (A) (A)
                 (A) (A) (A) (A) (A) (A) (A) (A) (A) (A) (A) (A)
                 (A) (A) (A) (A) (A) (A) (A) (A) (A) (A) (A) (A)
                 (A) (A) (A) (A) (A) (A) (A) (A)
       Virtual   (A) (A) (A) (A) (A) (A) (A) (A) (A) (A) (A) (A)
                 (A) (A) (A) (A) (A) (A) (A) (A) (A) (A) (A) (A)
                 (A) (A) (A) (A) (A) (A) (A) (A) (A) (A) (A) (A)
                 (A) (A) (A) (A) (A) (A) (A) (A) (A) (A) (A) (A)
                 (A) (A) (A) (A) (A) (A) (A) (A) (A) (A) (A) (A)
                 (A) (A) (A) (A) (A) (A) (A) (A) (A) (A) (A) (A)
                 (A) (A) (A) (A) (A) (A) (A) (A) (A) (A) (A) (A)
                 (A) (A) (A) (A) (A) (A) (A) (A) (A) (A) (A) (A)
                 (A) (A) (A) (A) (A) (A) (A) (A) (A) (A) (A) (A)
                 (A) (A) (A) (A) (A) (A) (A) (A) (A) (A) (A) (A)
                 (A) (A) (A) (A) (A) (A) (A) (A) (A) (A) (A) (A)
                 (A) (A) (A) (A) (A) (A) (A) (A) (A) (A) (A) (A)
                 (A) (A) (A) (A) (A) (A) (A) (A) (A) (A) (A) (A)
                 (A) (A) (A) (A) (A) (A) (A) (A) (A) (A) (A) (A)
                 (A) (A) (A) (A) (A) (A) (A) (A) (A) (A) (A) (A)
                 (A) (A) (A) (A) (A) (A) (A) (A) (A) (A) (A) (A)
                 (A) (A) (A) (A) (A) (A)
 The electronic state of the initial guess is 1-A.
 Requested convergence on RMS density matrix=1.00D-08 within 128 cycles.
 Requested convergence on MAX density matrix=1.00D-06.
 Requested convergence on             energy=1.00D-06.
 No special actions if energy rises.
 Integral accuracy reduced to 1.0D-05 until final iterations.
 Initial convergence to 1.0D-05 achieved.  Increase integral accuracy.
 SCF Done:  E(RHF) =  -650.065692900     A.U. after   14 cycles
             Convg  =    0.6602D-08             -V/T =  2.0015

 **********************************************************************

            Population analysis using the SCF density.

 **********************************************************************

 Orbital symmetries:
 BldTbl:  Degeneracy threshold= 1.00D-02
       Occupied  (A) (A) (A) (A) (A) (A) (A) (A) (A) (A) (A) (A)
                 (A) (A) (A) (A) (A) (A) (A) (A) (A) (A) (A) (A)
                 (A) (A) (A) (A) (A) (A) (A) (A) (A) (A) (A) (A)
                 (A) (A) (A) (A) (A) (A) (A) (A) (A) (A) (A) (A)
                 (A) (A) (A) (A) (A) (A) (A) (A)
       Virtual   (A) (A) (A) (A) (A) (A) (A) (A) (A) (A) (A) (A)
                 (A) (A) (A) (A) (A) (A) (A) (A) (A) (A) (A) (A)
                 (A) (A) (A) (A) (A) (A) (A) (A) (A) (A) (A) (A)
                 (A) (A) (A) (A) (A) (A) (A) (A) (A) (A) (A) (A)
                 (A) (A) (A) (A) (A) (A) (A) (A) (A) (A) (A) (A)
                 (A) (A) (A) (A) (A) (A) (A) (A) (A) (A) (A) (A)
                 (A) (A) (A) (A) (A) (A) (A) (A) (A) (A) (A) (A)
                 (A) (A) (A) (A) (A) (A) (A) (A) (A) (A) (A) (A)
                 (A) (A) (A) (A) (A) (A) (A) (A) (A) (A) (A) (A)
                 (A) (A) (A) (A) (A) (A) (A) (A) (A) (A) (A) (A)
                 (A) (A) (A) (A) (A) (A) (A) (A) (A) (A) (A) (A)
                 (A) (A) (A) (A) (A) (A) (A) (A) (A) (A) (A) (A)
                 (A) (A) (A) (A) (A) (A) (A) (A) (A) (A) (A) (A)
                 (A) (A) (A) (A) (A) (A) (A) (A) (A) (A) (A) (A)
                 (A) (A) (A) (A) (A) (A) (A) (A) (A) (A) (A) (A)
                 (A) (A) (A) (A) (A) (A) (A) (A) (A) (A) (A) (A)
                 (A) (A) (A) (A) (A) (A)
 The electronic state is 1-A.
 Alpha  occ. eigenvalues --  -20.61531 -20.54155 -15.55232 -15.53867 -11.38273
 Alpha  occ. eigenvalues --  -11.27279 -11.24562 -11.23651 -11.23521 -11.23502
 Alpha  occ. eigenvalues --  -11.23474 -11.22824 -11.20886 -11.20821  -1.45989
 Alpha  occ. eigenvalues --   -1.35054  -1.23020  -1.21232  -1.08411  -1.02473
 Alpha  occ. eigenvalues --   -0.96409  -0.94472  -0.93980  -0.87535  -0.86300
 Alpha  occ. eigenvalues --   -0.81516  -0.78007  -0.77270  -0.70291  -0.68665
 Alpha  occ. eigenvalues --   -0.67176  -0.64931  -0.64666  -0.62851  -0.61933
 Alpha  occ. eigenvalues --   -0.61005  -0.60003  -0.59156  -0.57106  -0.55652
 Alpha  occ. eigenvalues --   -0.55021  -0.54245  -0.53827  -0.52621  -0.51709
 Alpha  occ. eigenvalues --   -0.51151  -0.51118  -0.49750  -0.48915  -0.47148
 Alpha  occ. eigenvalues --   -0.46808  -0.45709  -0.43542  -0.43079  -0.35529
 Alpha  occ. eigenvalues --   -0.34332
 Alpha virt. eigenvalues --    0.17803   0.21573   0.22424   0.23340   0.25267
 Alpha virt. eigenvalues --    0.26581   0.27604   0.29177   0.29406   0.30098
 Alpha virt. eigenvalues --    0.30665   0.30822   0.32117   0.32385   0.32972
 Alpha virt. eigenvalues --    0.34113   0.34928   0.35064   0.35501   0.36086
 Alpha virt. eigenvalues --    0.36476   0.37687   0.38200   0.38518   0.39460
 Alpha virt. eigenvalues --    0.39786   0.41644   0.42964   0.43141   0.44775
 Alpha virt. eigenvalues --    0.46606   0.47751   0.50070   0.52633   0.56828
 Alpha virt. eigenvalues --    0.63143   0.70714   0.71996   0.73386   0.74239
 Alpha virt. eigenvalues --    0.74504   0.76249   0.76819   0.77963   0.79205
 Alpha virt. eigenvalues --    0.80061   0.81252   0.82511   0.82870   0.86103
 Alpha virt. eigenvalues --    0.87098   0.89179   0.90149   0.93223   0.94695
 Alpha virt. eigenvalues --    0.95566   0.96666   0.97021   0.99906   1.00450
 Alpha virt. eigenvalues --    1.04151   1.04882   1.06196   1.06746   1.08955
 Alpha virt. eigenvalues --    1.09556   1.10468   1.11156   1.11313   1.12250
 Alpha virt. eigenvalues --    1.12652   1.14466   1.15170   1.16108   1.16663
 Alpha virt. eigenvalues --    1.17501   1.18535   1.18938   1.20100   1.20278
 Alpha virt. eigenvalues --    1.20549   1.21228   1.21572   1.21894   1.23053
 Alpha virt. eigenvalues --    1.24225   1.24594   1.25828   1.26157   1.26796
 Alpha virt. eigenvalues --    1.27372   1.29169   1.29902   1.30916   1.32086
 Alpha virt. eigenvalues --    1.36568   1.39342   1.40646   1.42966   1.45169
 Alpha virt. eigenvalues --    1.48938   1.51967   1.56541   1.58098   1.61524
 Alpha virt. eigenvalues --    1.64217   1.65534   1.66964   1.68217   1.71047
 Alpha virt. eigenvalues --    1.73153   1.73528   1.75683   1.80296   1.82969
 Alpha virt. eigenvalues --    1.85572   1.87213   1.94719   1.96963   1.99087
 Alpha virt. eigenvalues --    2.03940   2.04180   2.07592   2.09097   2.11740
 Alpha virt. eigenvalues --    2.15029   2.15540   2.17879   2.19155   2.20332
 Alpha virt. eigenvalues --    2.22040   2.23890   2.26354   2.26974   2.28492
 Alpha virt. eigenvalues --    2.29350   2.30533   2.33449   2.34370   2.35180
 Alpha virt. eigenvalues --    2.36288   2.38004   2.38986   2.40348   2.41228
 Alpha virt. eigenvalues --    2.42810   2.44535   2.47126   2.47822   2.48776
 Alpha virt. eigenvalues --    2.51062   2.51547   2.56365   2.56936   2.57114
 Alpha virt. eigenvalues --    2.59355   2.60292   2.62042   2.64639   2.67554
 Alpha virt. eigenvalues --    2.70640   2.75258   2.76393   2.78963   2.82261
 Alpha virt. eigenvalues --    2.85443   2.86502   2.89180   2.92461   2.93120
 Alpha virt. eigenvalues --    2.96752   2.97667   2.99161   3.02878   3.07243
 Alpha virt. eigenvalues --    3.11358   3.14467   3.18395   3.20529   3.26269
 Alpha virt. eigenvalues --    3.30054   3.33187   3.40435   3.48145   4.30543
 Alpha virt. eigenvalues --    4.48061   4.53303   4.60535   4.68777   4.70281
 Alpha virt. eigenvalues --    4.70453   4.73812   4.74834   4.77286   4.84041
 Alpha virt. eigenvalues --    4.89338   5.00004   5.14083
          Condensed to atoms (all electrons):
              1          2          3          4          5          6
     1  O    8.366083   0.001233  -0.073781   0.003089  -0.000100  -0.000002
     2  N    0.001233   7.161480   0.290333  -0.059794  -0.004974   0.000241
     3  C   -0.073781   0.290333   5.100110   0.337548  -0.069911   0.005584
     4  C    0.003089  -0.059794   0.337548   5.182355   0.326271  -0.059644
     5  C   -0.000100  -0.004974  -0.069911   0.326271   5.160440   0.327348
     6  C   -0.000002   0.000241   0.005584  -0.059644   0.327348   5.132018
     7  C    0.000000   0.000006  -0.000130   0.004988  -0.060594   0.366605
     8  N    0.000000   0.000000   0.000000  -0.000077   0.003850  -0.063400
     9  C    0.000000   0.000000   0.000000   0.000005   0.000036  -0.008409
    10  C    0.000000   0.000000   0.000000   0.000002  -0.000131   0.005696
    11  C    0.285667  -0.059487   0.350926  -0.029236  -0.007945   0.000025
    12  O   -0.094068  -0.000092  -0.092158  -0.002448  -0.000053   0.000145
    13  C   -0.000035   0.274038  -0.062601  -0.009848  -0.003918   0.000035
    14  C   -0.000173   0.269810  -0.063684   0.005054   0.000001   0.000004
    15  H    0.003181  -0.055790   0.399189  -0.043047   0.006064  -0.000025
    16  H    0.002251   0.003434  -0.039041   0.399817  -0.036940  -0.004774
    17  H   -0.000034  -0.002852  -0.036847   0.408524  -0.042662  -0.003067
    18  H   -0.000003   0.002784  -0.003687  -0.037720   0.405021  -0.042893
    19  H   -0.000371   0.000258  -0.005471  -0.039712   0.402596  -0.041964
    20  H   -0.000005  -0.000013  -0.000109  -0.004470  -0.037342   0.392604
    21  H    0.000000   0.000002  -0.000052  -0.004215  -0.039894   0.400139
    22  H    0.000000  -0.000007   0.000007  -0.000142   0.000513  -0.054297
    23  H    0.000000   0.000000   0.000003  -0.000069  -0.003404  -0.034347
    24  H    0.000000   0.000000   0.000000  -0.000001   0.000040  -0.000393
    25  H    0.000000   0.000000   0.000000   0.000000  -0.000001   0.000169
    26  H    0.000000   0.000000   0.000000   0.000014   0.000053  -0.003027
    27  H    0.000000   0.000000   0.000000   0.000000  -0.000011  -0.000022
    28  H    0.000000   0.000000   0.000000   0.000000   0.000001  -0.000139
    29  H    0.000000   0.000000   0.000000   0.000000   0.000018  -0.000330
    30  H    0.000001  -0.058778  -0.005374  -0.002327   0.000445   0.000006
    31  H    0.000000  -0.037063   0.004993   0.000414  -0.000042  -0.000003
    32  H    0.000000  -0.040499  -0.006192  -0.003075  -0.001849   0.000151
    33  H   -0.000130  -0.037479  -0.004389   0.000105  -0.000041  -0.000001
    34  H    0.000000  -0.037359   0.004635  -0.000077  -0.000008   0.000000
    35  H   -0.000002  -0.061684  -0.005171  -0.000402   0.000028   0.000000
    36  H    0.247249  -0.000105   0.005248  -0.000255  -0.000027  -0.000001
              7          8          9         10         11         12
     1  O    0.000000   0.000000   0.000000   0.000000   0.285667  -0.094068
     2  N    0.000006   0.000000   0.000000   0.000000  -0.059487  -0.000092
     3  C   -0.000130   0.000000   0.000000   0.000000   0.350926  -0.092158
     4  C    0.004988  -0.000077   0.000005   0.000002  -0.029236  -0.002448
     5  C   -0.060594   0.003850   0.000036  -0.000131  -0.007945  -0.000053
     6  C    0.366605  -0.063400  -0.008409   0.005696   0.000025   0.000145
     7  C    4.941101   0.273718  -0.061890  -0.065133  -0.000009   0.000003
     8  N    0.273718   7.166060   0.276090   0.280906   0.000000   0.000000
     9  C   -0.061890   0.276090   4.969746  -0.065190   0.000000   0.000000
    10  C   -0.065133   0.280906  -0.065190   4.948616   0.000000   0.000000
    11  C   -0.000009   0.000000   0.000000   0.000000   4.174074   0.562203
    12  O    0.000003   0.000000   0.000000   0.000000   0.562203   8.176910
    13  C   -0.000002   0.000000   0.000000   0.000000   0.004823   0.000024
    14  C    0.000000   0.000000   0.000000   0.000000  -0.003655  -0.008867
    15  H    0.000001   0.000000   0.000000   0.000000  -0.050728   0.002533
    16  H   -0.000011  -0.000004   0.000000   0.000000  -0.004628   0.000074
    17  H   -0.000094   0.000001  -0.000006   0.000000   0.003807  -0.000124
    18  H   -0.002914  -0.000042   0.000014  -0.000002  -0.000457   0.000035
    19  H   -0.003551  -0.000015  -0.000011  -0.000007   0.006255   0.001720
    20  H   -0.037179   0.002321   0.000180  -0.000094   0.000041   0.000003
    21  H   -0.040246  -0.002424  -0.003782  -0.000154  -0.000009  -0.000002
    22  H    0.392144  -0.059725  -0.006016  -0.003260   0.000001   0.000000
    23  H    0.406994  -0.037903   0.004914  -0.004827  -0.000009  -0.000004
    24  H   -0.006314  -0.060964   0.382412  -0.004118   0.000000   0.000000
    25  H    0.005117  -0.037890   0.401529  -0.004234   0.000000   0.000000
    26  H   -0.003544  -0.039008   0.405236   0.004940   0.000000   0.000000
    27  H   -0.003617  -0.039488   0.005022   0.402313   0.000000   0.000000
    28  H    0.005287  -0.039053  -0.003957   0.400725   0.000000   0.000000
    29  H   -0.005637  -0.059726  -0.004417   0.383797   0.000000   0.000000
    30  H    0.000000   0.000000   0.000000   0.000000  -0.000643  -0.000006
    31  H    0.000000   0.000000   0.000000   0.000000  -0.000032  -0.000002
    32  H   -0.000019   0.000000   0.000000   0.000000  -0.000005   0.000013
    33  H    0.000000   0.000000   0.000000   0.000000   0.004678   0.003112
    34  H    0.000000   0.000000   0.000000   0.000000   0.000340   0.000168
    35  H    0.000000   0.000000   0.000000   0.000000  -0.002498   0.000434
    36  H    0.000000   0.000000   0.000000   0.000000  -0.005742   0.006062
             13         14         15         16         17         18
     1  O   -0.000035  -0.000173   0.003181   0.002251  -0.000034  -0.000003
     2  N    0.274038   0.269810  -0.055790   0.003434  -0.002852   0.002784
     3  C   -0.062601  -0.063684   0.399189  -0.039041  -0.036847  -0.003687
     4  C   -0.009848   0.005054  -0.043047   0.399817   0.408524  -0.037720
     5  C   -0.003918   0.000001   0.006064  -0.036940  -0.042662   0.405021
     6  C    0.000035   0.000004  -0.000025  -0.004774  -0.003067  -0.042893
     7  C   -0.000002   0.000000   0.000001  -0.000011  -0.000094  -0.002914
     8  N    0.000000   0.000000   0.000000  -0.000004   0.000001  -0.000042
     9  C    0.000000   0.000000   0.000000   0.000000  -0.000006   0.000014
    10  C    0.000000   0.000000   0.000000   0.000000   0.000000  -0.000002
    11  C    0.004823  -0.003655  -0.050728  -0.004628   0.003807  -0.000457
    12  O    0.000024  -0.008867   0.002533   0.000074  -0.000124   0.000035
    13  C    4.970736  -0.063367  -0.002950   0.000381  -0.005303  -0.001902
    14  C   -0.063367   4.996245  -0.003893  -0.000100  -0.000182   0.000019
    15  H   -0.002950  -0.003893   0.555154  -0.000885  -0.004194   0.000011
    16  H    0.000381  -0.000100  -0.000885   0.507063  -0.020810   0.003457
    17  H   -0.005303  -0.000182  -0.004194  -0.020810   0.525123  -0.002305
    18  H   -0.001902   0.000019   0.000011   0.003457  -0.002305   0.507838
    19  H    0.000050  -0.000058  -0.000040  -0.000424   0.003699  -0.019884
    20  H   -0.000001   0.000000  -0.000006   0.002213   0.000323   0.003858
    21  H   -0.000015   0.000000  -0.000002   0.000450   0.002104  -0.001937
    22  H    0.000001   0.000000   0.000000  -0.000007   0.000023   0.002160
    23  H    0.000000   0.000000   0.000000   0.000020  -0.000003   0.000310
    24  H    0.000000   0.000000   0.000000   0.000000   0.000000   0.000001
    25  H    0.000000   0.000000   0.000000   0.000000   0.000000   0.000000
    26  H    0.000000   0.000000   0.000000   0.000001  -0.000012   0.000017
    27  H    0.000000   0.000000   0.000000   0.000000   0.000000   0.000000
    28  H    0.000000   0.000000   0.000000   0.000000   0.000000   0.000000
    29  H    0.000000   0.000000   0.000000   0.000000   0.000000  -0.000001
    30  H    0.385928  -0.003709   0.008367  -0.000017   0.000413   0.000224
    31  H    0.403270  -0.004486  -0.000315  -0.000001   0.000301  -0.000101
    32  H    0.407060   0.004846  -0.000717   0.000397  -0.008834  -0.000571
    33  H    0.004439   0.402267  -0.001104  -0.000002   0.000000  -0.000016
    34  H   -0.004513   0.401013  -0.000301   0.000002   0.000002  -0.000009
    35  H   -0.003717   0.382184   0.010370   0.000001  -0.000003   0.000007
    36  H    0.000003   0.000001  -0.000258  -0.000056   0.000006   0.000001
             19         20         21         22         23         24
     1  O   -0.000371  -0.000005   0.000000   0.000000   0.000000   0.000000
     2  N    0.000258  -0.000013   0.000002  -0.000007   0.000000   0.000000
     3  C   -0.005471  -0.000109  -0.000052   0.000007   0.000003   0.000000
     4  C   -0.039712  -0.004470  -0.004215  -0.000142  -0.000069  -0.000001
     5  C    0.402596  -0.037342  -0.039894   0.000513  -0.003404   0.000040
     6  C   -0.041964   0.392604   0.400139  -0.054297  -0.034347  -0.000393
     7  C   -0.003551  -0.037179  -0.040246   0.392144   0.406994  -0.006314
     8  N   -0.000015   0.002321  -0.002424  -0.059725  -0.037903  -0.060964
     9  C   -0.000011   0.000180  -0.003782  -0.006016   0.004914   0.382412
    10  C   -0.000007  -0.000094  -0.000154  -0.003260  -0.004827  -0.004118
    11  C    0.006255   0.000041  -0.000009   0.000001  -0.000009   0.000000
    12  O    0.001720   0.000003  -0.000002   0.000000  -0.000004   0.000000
    13  C    0.000050  -0.000001  -0.000015   0.000001   0.000000   0.000000
    14  C   -0.000058   0.000000   0.000000   0.000000   0.000000   0.000000
    15  H   -0.000040  -0.000006  -0.000002   0.000000   0.000000   0.000000
    16  H   -0.000424   0.002213   0.000450  -0.000007   0.000020   0.000000
    17  H    0.003699   0.000323   0.002104   0.000023  -0.000003   0.000000
    18  H   -0.019884   0.003858  -0.001937   0.002160   0.000310   0.000001
    19  H    0.506756  -0.001739   0.003990   0.000330   0.002078   0.000001
    20  H   -0.001739   0.536155  -0.027516   0.004774  -0.002880   0.000134
    21  H    0.003990  -0.027516   0.566749  -0.002839   0.003808   0.000199
    22  H    0.000330   0.004774  -0.002839   0.608518  -0.033479   0.011100
    23  H    0.002078  -0.002880   0.003808  -0.033479   0.529595  -0.000275
    24  H    0.000001   0.000134   0.000199   0.011100  -0.000275   0.611157
    25  H    0.000000  -0.000075   0.000221  -0.000348  -0.000079  -0.034729
    26  H   -0.000010   0.000191  -0.004922  -0.000804  -0.000084  -0.037462
    27  H   -0.000001  -0.000006  -0.000003  -0.000521   0.002863  -0.000349
    28  H    0.000000  -0.000004   0.000006  -0.000315   0.000100  -0.000746
    29  H    0.000001   0.000020   0.000001   0.008255  -0.000797   0.009381
    30  H   -0.000007   0.000000  -0.000002   0.000000   0.000000   0.000000
    31  H    0.000006   0.000000   0.000000   0.000000   0.000000   0.000000
    32  H   -0.000010  -0.000005   0.000233  -0.000001   0.000001   0.000000
    33  H    0.000013   0.000000   0.000000   0.000000   0.000000   0.000000
    34  H    0.000000   0.000000   0.000000   0.000000   0.000000   0.000000
    35  H    0.000000   0.000000   0.000000   0.000000   0.000000   0.000000
    36  H    0.000043   0.000000   0.000000   0.000000   0.000000   0.000000
             25         26         27         28         29         30
     1  O    0.000000   0.000000   0.000000   0.000000   0.000000   0.000001
     2  N    0.000000   0.000000   0.000000   0.000000   0.000000  -0.058778
     3  C    0.000000   0.000000   0.000000   0.000000   0.000000  -0.005374
     4  C    0.000000   0.000014   0.000000   0.000000   0.000000  -0.002327
     5  C   -0.000001   0.000053  -0.000011   0.000001   0.000018   0.000445
     6  C    0.000169  -0.003027  -0.000022  -0.000139  -0.000330   0.000006
     7  C    0.005117  -0.003544  -0.003617   0.005287  -0.005637   0.000000
     8  N   -0.037890  -0.039008  -0.039488  -0.039053  -0.059726   0.000000
     9  C    0.401529   0.405236   0.005022  -0.003957  -0.004417   0.000000
    10  C   -0.004234   0.004940   0.402313   0.400725   0.383797   0.000000
    11  C    0.000000   0.000000   0.000000   0.000000   0.000000  -0.000643
    12  O    0.000000   0.000000   0.000000   0.000000   0.000000  -0.000006
    13  C    0.000000   0.000000   0.000000   0.000000   0.000000   0.385928
    14  C    0.000000   0.000000   0.000000   0.000000   0.000000  -0.003709
    15  H    0.000000   0.000000   0.000000   0.000000   0.000000   0.008367
    16  H    0.000000   0.000001   0.000000   0.000000   0.000000  -0.000017
    17  H    0.000000  -0.000012   0.000000   0.000000   0.000000   0.000413
    18  H    0.000000   0.000017   0.000000   0.000000  -0.000001   0.000224
    19  H    0.000000  -0.000010  -0.000001   0.000000   0.000001  -0.000007
    20  H   -0.000075   0.000191  -0.000006  -0.000004   0.000020   0.000000
    21  H    0.000221  -0.004922  -0.000003   0.000006   0.000001  -0.000002
    22  H   -0.000348  -0.000804  -0.000521  -0.000315   0.008255   0.000000
    23  H   -0.000079  -0.000084   0.002863   0.000100  -0.000797   0.000000
    24  H   -0.034729  -0.037462  -0.000349  -0.000746   0.009381   0.000000
    25  H    0.522967  -0.022436   0.000034   0.002948  -0.000739   0.000000
    26  H   -0.022436   0.530111  -0.000100   0.000036  -0.000369   0.000000
    27  H    0.000034  -0.000100   0.524818  -0.022370  -0.035993   0.000000
    28  H    0.002948   0.000036  -0.022370   0.529003  -0.035707   0.000000
    29  H   -0.000739  -0.000369  -0.035993  -0.035707   0.610977   0.000000
    30  H    0.000000   0.000000   0.000000   0.000000   0.000000   0.605773
    31  H    0.000000   0.000000   0.000000   0.000000   0.000000  -0.033418
    32  H    0.000000  -0.000001   0.000000   0.000000   0.000000  -0.039946
    33  H    0.000000   0.000000   0.000000   0.000000   0.000000  -0.000378
    34  H    0.000000   0.000000   0.000000   0.000000   0.000000  -0.000624
    35  H    0.000000   0.000000   0.000000   0.000000   0.000000   0.007960
    36  H    0.000000   0.000000   0.000000   0.000000   0.000000   0.000000
             31         32         33         34         35         36
     1  O    0.000000   0.000000  -0.000130   0.000000  -0.000002   0.247249
     2  N   -0.037063  -0.040499  -0.037479  -0.037359  -0.061684  -0.000105
     3  C    0.004993  -0.006192  -0.004389   0.004635  -0.005171   0.005248
     4  C    0.000414  -0.003075   0.000105  -0.000077  -0.000402  -0.000255
     5  C   -0.000042  -0.001849  -0.000041  -0.000008   0.000028  -0.000027
     6  C   -0.000003   0.000151  -0.000001   0.000000   0.000000  -0.000001
     7  C    0.000000  -0.000019   0.000000   0.000000   0.000000   0.000000
     8  N    0.000000   0.000000   0.000000   0.000000   0.000000   0.000000
     9  C    0.000000   0.000000   0.000000   0.000000   0.000000   0.000000
    10  C    0.000000   0.000000   0.000000   0.000000   0.000000   0.000000
    11  C   -0.000032  -0.000005   0.004678   0.000340  -0.002498  -0.005742
    12  O   -0.000002   0.000013   0.003112   0.000168   0.000434   0.006062
    13  C    0.403270   0.407060   0.004439  -0.004513  -0.003717   0.000003
    14  C   -0.004486   0.004846   0.402267   0.401013   0.382184   0.000001
    15  H   -0.000315  -0.000717  -0.001104  -0.000301   0.010370  -0.000258
    16  H   -0.000001   0.000397  -0.000002   0.000002   0.000001  -0.000056
    17  H    0.000301  -0.008834   0.000000   0.000002  -0.000003   0.000006
    18  H   -0.000101  -0.000571  -0.000016  -0.000009   0.000007   0.000001
    19  H    0.000006  -0.000010   0.000013   0.000000   0.000000   0.000043
    20  H    0.000000  -0.000005   0.000000   0.000000   0.000000   0.000000
    21  H    0.000000   0.000233   0.000000   0.000000   0.000000   0.000000
    22  H    0.000000  -0.000001   0.000000   0.000000   0.000000   0.000000
    23  H    0.000000   0.000001   0.000000   0.000000   0.000000   0.000000
    24  H    0.000000   0.000000   0.000000   0.000000   0.000000   0.000000
    25  H    0.000000   0.000000   0.000000   0.000000   0.000000   0.000000
    26  H    0.000000  -0.000001   0.000000   0.000000   0.000000   0.000000
    27  H    0.000000   0.000000   0.000000   0.000000   0.000000   0.000000
    28  H    0.000000   0.000000   0.000000   0.000000   0.000000   0.000000
    29  H    0.000000   0.000000   0.000000   0.000000   0.000000   0.000000
    30  H   -0.033418  -0.039946  -0.000378  -0.000624   0.007960   0.000000
    31  H    0.507118  -0.021415   0.000076   0.002605  -0.000576   0.000000
    32  H   -0.021415   0.539356  -0.000073   0.000106  -0.000423   0.000000
    33  H    0.000076  -0.000073   0.469904  -0.018532  -0.036037   0.000036
    34  H    0.002605   0.000106  -0.018532   0.516888  -0.033100   0.000000
    35  H   -0.000576  -0.000423  -0.036037  -0.033100   0.615695  -0.000003
    36  H    0.000000   0.000000   0.000036   0.000000  -0.000003   0.269570
 Mulliken atomic charges:
              1
     1  O   -0.740048
     2  N   -0.547643
     3  C   -0.029979
     4  C   -0.371627
     5  C   -0.322879
     6  C   -0.314029
     7  C   -0.105079
     8  N   -0.563228
     9  C   -0.291505
    10  C   -0.279845
    11  C    0.772243
    12  O   -0.555614
    13  C   -0.292615
    14  C   -0.309268
    15  H    0.179383
    16  H    0.188139
    17  H    0.183006
    18  H    0.188687
    19  H    0.185479
    20  H    0.168624
    21  H    0.150111
    22  H    0.133935
    23  H    0.167477
    24  H    0.130926
    25  H    0.167547
    26  H    0.171179
    27  H    0.167432
    28  H    0.164186
    29  H    0.131268
    30  H    0.136111
    31  H    0.178672
    32  H    0.171472
    33  H    0.213552
    34  H    0.168764
    35  H    0.126937
    36  H    0.478229
 Sum of Mulliken atomic charges =   0.00000
 Mulliken charges with hydrogens summed into heavy atoms:
              1
     1  O   -0.261819
     2  N   -0.547643
     3  C    0.149405
     4  C   -0.000483
     5  C    0.051287
     6  C    0.004706
     7  C    0.196332
     8  N   -0.563228
     9  C    0.178147
    10  C    0.183042
    11  C    0.772243
    12  O   -0.555614
    13  C    0.193640
    14  C    0.199986
 Sum of Mulliken charges with hydrogens summed into heavy atoms =   0.00000
 DipInt: DoE/N= T F RetVal/Mat= T F Init=T NMatP=  1 IDeriv=0 Min/MaxMlt=  0  4
 Entering OneElI...
 OneElI was handed    33386435 working-precision words.
 Multipole integrals L=0 to 4 MinM= 0 MaxM= 0.
 Requested accuracy = 0.1000D-12
 PrsmSu:  NPrtUS=   1 ThrOK=F IAlg=1 NPAlg=1 LenDen=           0.
 Prism:   IPart=     0 DynPar=F LinDyn=F Incr=          41.
 PRISM was handed    33054879 working-precision words and  4189 shell-pairs
 IPart=  0 NShTot=        4189 NBatch=          50 AvBLen=        83.8
 PrSmSu:  NxtVal=             42.
 Electronic moments (au):
       -112.00000000         -0.23389824          0.32706445         -0.57628939
      -3630.48888610       -722.31572744       -339.03985712          2.06069277
          3.95308698          0.16299805      -9836.06208189       -154.71482816
         -9.89963138       1976.49216599         55.97816503      -1545.22173533
        109.20248308         84.85166488         63.97808326        789.51823763
    -210750.04888545     -12865.59651616      -2584.62449702       4104.59653122
      -3297.81528415       -849.52262784       -890.31446091        -49.84991223
         91.79246858     -20866.79548031     -11552.58560262      -2061.36098442
       1039.01601039       -289.07982437        -75.59879124
 Electronic spatial extent (au):  <R**2>=           4691.8445
 DipInt: DoE/N= F T RetVal/Mat= T F Init=T NMatP=  1 IDeriv=0 Min/MaxMlt=  0  4
 Nuclear    moments (au):
        112.00000000          0.00000000          0.00000000          0.00000000
       3567.26954680        662.58353518        268.79778569          0.00000000
          0.00000000          0.00000000       9800.74472109         92.59652543
          8.44368764      -2020.34096690        -58.12704550       1557.55826906
       -105.65643110        -77.60570822        -62.43542517       -805.28048802
     198334.65128366      10833.92071112       1386.11400539      -3855.55768757
       3318.12594031       1175.31211366        945.33019028         33.82781394
        -75.45927606      18485.49528368       9126.15511980       1433.67450658
      -1075.50499025        294.57907353         41.94315929
 Total      moments (au):
          0.00000000         -0.23389824          0.32706445         -0.57628939
        -63.21933930        -59.73219226        -70.24207143          2.06069277
          3.95308698          0.16299805        -35.31736080        -62.11830273
         -1.45594374        -43.84880090         -2.14888048         12.33653373
          3.54605198          7.24595665          1.54265809        -15.76225039
     -12415.39760179      -2031.67580504      -1198.51049163        249.03884365
         20.31065617        325.78948582         55.01572937        -16.02209828
         16.33319252      -2381.30019663      -2426.43048282       -627.68647784
        -36.48897986          5.49924917        -33.65563194
 Traceless Quadrup. (au):
          1.17852837          4.66567540         -5.84420377          2.06069277
          3.95308698          0.16299805
 Charge=              0.0000 electrons
 Dipole moment (field-independent basis, Debye):
    X=             -0.5945    Y=              0.8313    Z=             -1.4648  Tot=              1.7861
 Quadrupole moment (field-independent basis, Debye-Ang):
   XX=            -85.0322   YY=            -80.3418   ZZ=            -94.4780
   XY=              2.7717   XZ=              5.3170   YZ=              0.2192
 Traceless Quadrupole moment (field-independent basis, Debye-Ang):
   XX=              1.5852   YY=              6.2755   ZZ=             -7.8607
   XY=              2.7717   XZ=              5.3170   YZ=              0.2192
 Octapole moment (field-independent basis, Debye-Ang**2):
  XXX=            -25.1375  YYY=            -44.2134  ZZZ=             -1.0363  XYY=            -31.2099
  XXY=             -1.5295  XXZ=              8.7807  XZZ=              2.5239  YZZ=              5.1574
  YYZ=              1.0980  XYZ=            -11.2190
 Hexadecapole moment (field-independent basis, Debye-Ang**3):
 XXXX=          -4676.2338 YYYY=           -765.2265 ZZZZ=           -451.4165 XXXY=             93.8000
 XXXZ=              7.6500 YYYX=            122.7079 YYYZ=             20.7216 ZZZX=             -6.0347
 ZZZY=              6.1519 XXYY=           -896.9118 XXZZ=           -913.9100 YYZZ=           -236.4168
 XXYZ=            -13.7435 YYXZ=              2.0713 ZZXY=            -12.6763
 N-N= 9.720377272378D+02 E-N=-3.464838712006D+03  KE= 6.490955586235D+02
 Entering OneElI...
 OneElI was handed    33256249 working-precision words.
 Calculate electrostatic properties
    NBasis =   254  MinDer = 0  MaxDer = 0
    NGrid  =    36  NMatD  =   1
 Requested accuracy = 0.1000D-12
 PrsmSu:  NPrtUS=   1 ThrOK=F IAlg=1 NPAlg=1 LenDen=           0.
 Prism:   IPart=     0 DynPar=F LinDyn=F Incr=         512.
 PRISM was handed    32958603 working-precision words and  3720 shell-pairs
 IPart=  0 NShTot=      133920 NBatch=        3720 AvBLen=        36.0
 PrSmSu:  NxtVal=            513.
 --------------------------------------------------------
       Center         ----      EFG at Nuclei      ----
                      3XX-RR        3YY-RR        3ZZ-RR
 --------------------------------------------------------
     1   Atom        1.066040     -1.614596      0.548556
     2   Atom        0.139233     -0.555956      0.416723
     3   Atom        0.133266     -0.115752     -0.017514
     4   Atom       -0.056052      0.033931      0.022121
     5   Atom       -0.027725      0.038507     -0.010783
     6   Atom        0.009282      0.012535     -0.021817
     7   Atom       -0.127190      0.095840      0.031350
     8   Atom       -0.597893      0.188593      0.409300
     9   Atom        0.079487     -0.136898      0.057411
    10   Atom       -0.024562      0.067394     -0.042831
    11   Atom       -0.507301      0.216632      0.290669
    12   Atom       -0.878557      1.614078     -0.735521
    13   Atom        0.086701     -0.149784      0.063083
    14   Atom       -0.192976      0.140767      0.052210
    15   Atom       -0.042849      0.129893     -0.087044
    16   Atom        0.139215     -0.072558     -0.066657
    17   Atom        0.138532     -0.212947      0.074415
    18   Atom        0.146891     -0.101654     -0.045237
    19   Atom        0.126014     -0.187853      0.061839
    20   Atom        0.147802     -0.100433     -0.047369
    21   Atom        0.126958     -0.187886      0.060928
    22   Atom        0.140595     -0.096958     -0.043637
    23   Atom        0.124199     -0.186114      0.061915
    24   Atom        0.157095     -0.070700     -0.086394
    25   Atom       -0.238841      0.146215      0.092626
    26   Atom       -0.038794      0.122490     -0.083696
    27   Atom        0.122550     -0.231782      0.109232
    28   Atom       -0.230820      0.155118      0.075701
    29   Atom        0.150341     -0.027435     -0.122907
    30   Atom        0.001497      0.115612     -0.117109
    31   Atom        0.147970     -0.052445     -0.095525
    32   Atom       -0.255866      0.139116      0.116750
    33   Atom        0.130378     -0.184057      0.053679
    34   Atom        0.137693     -0.101734     -0.035959
    35   Atom       -0.044951      0.154551     -0.109600
    36   Atom        0.225546     -0.309263      0.083717
 --------------------------------------------------------
                        XY            XZ            YZ
 --------------------------------------------------------
     1   Atom       -0.644514     -0.117322     -0.208926
     2   Atom       -0.285129      0.882794     -0.390543
     3   Atom       -0.011007      0.009309     -0.062924
     4   Atom       -0.016371      0.050051      0.003006
     5   Atom        0.005500     -0.032691      0.016134
     6   Atom       -0.007229     -0.004319      0.008529
     7   Atom        0.003443      0.103073     -0.006403
     8   Atom       -0.014147     -0.026020      0.938500
     9   Atom       -0.065426      0.031245      0.074131
    10   Atom        0.052616     -0.123416      0.045945
    11   Atom        0.127347      0.035293     -0.250677
    12   Atom        0.546260      0.087888      0.348338
    13   Atom       -0.060103      0.005008      0.089153
    14   Atom        0.011604      0.083829     -0.029110
    15   Atom        0.052945     -0.215904      0.056619
    16   Atom        0.039365      0.040958     -0.224178
    17   Atom       -0.054790      0.028149      0.164284
    18   Atom        0.027792      0.015008     -0.221055
    19   Atom       -0.071754      0.027638      0.178990
    20   Atom        0.026242      0.021887     -0.224613
    21   Atom       -0.073541      0.036504      0.183711
    22   Atom        0.025797      0.024999     -0.224766
    23   Atom       -0.069585      0.036802      0.181173
    24   Atom        0.009374      0.015921     -0.223789
    25   Atom        0.016372      0.158853      0.000670
    26   Atom        0.064930     -0.209382      0.086734
    27   Atom       -0.095160      0.026861      0.135931
    28   Atom        0.004304      0.163848      0.006229
    29   Atom        0.010152      0.000165     -0.220915
    30   Atom        0.062755     -0.205840      0.092295
    31   Atom        0.031638      0.045872     -0.218908
    32   Atom        0.000268      0.129899     -0.002240
    33   Atom       -0.071345      0.046612      0.172424
    34   Atom        0.033946      0.039497     -0.224245
    35   Atom        0.036262     -0.217033      0.039574
    36   Atom       -0.090053      0.037472      0.254457
 --------------------------------------------------------


 ---------------------------------------------------------------------------------
              Nuclear Quadrupole in Principal Axis System
 ---------------------------------------------------------------------------------

       Atom             a.u.   MegaHertz   Gauss  10(-4) cm-1        Axes

              Baa    -1.7842   129.100    46.066    43.063  0.2233  0.9698  0.0981
     1 O(17)  Bbb     0.5641   -40.821   -14.566   -13.616  0.0793 -0.1184  0.9898
              Bcc     1.2200   -88.279   -31.500   -29.447  0.9715 -0.2133 -0.1034
 
              Baa    -0.6972   -26.890    -9.595    -8.970 -0.1578  0.8861  0.4358
     2 N(14)  Bbb    -0.5999   -23.136    -8.255    -7.717  0.7643  0.3890 -0.5143
              Bcc     1.2971    50.026    17.851    16.687  0.6252 -0.2519  0.7387
 
              Baa    -0.1466   -19.670    -7.019    -6.561  0.0208  0.8993  0.4369
     3 C(13)  Bbb     0.0118     1.578     0.563     0.527 -0.1078 -0.4324  0.8952
              Bcc     0.1348    18.091     6.455     6.035  0.9940 -0.0657  0.0879
 
              Baa    -0.0827   -11.094    -3.959    -3.701  0.8924  0.1364 -0.4301
     4 C(13)  Bbb     0.0345     4.630     1.652     1.544  0.0351  0.9294  0.3674
              Bcc     0.0482     6.465     2.307     2.156  0.4499 -0.3430  0.8246
 
              Baa    -0.0552    -7.409    -2.644    -2.471  0.7689 -0.1520  0.6210
     5 C(13)  Bbb     0.0116     1.554     0.555     0.518 -0.6347 -0.2976  0.7131
              Bcc     0.0436     5.855     2.089     1.953 -0.0764  0.9425  0.3254
 
              Baa    -0.0240    -3.224    -1.150    -1.075  0.0804 -0.2114  0.9741
     6 C(13)  Bbb     0.0036     0.486     0.173     0.162  0.8035  0.5921  0.0621
              Bcc     0.0204     2.738     0.977     0.913 -0.5899  0.7776  0.2174
 
              Baa    -0.1781   -23.896    -8.527    -7.971  0.8967 -0.0216 -0.4420
     7 C(13)  Bbb     0.0809    10.859     3.875     3.622  0.4309  0.2702  0.8610
              Bcc     0.0972    13.037     4.652     4.349 -0.1008  0.9626 -0.2516
 
              Baa    -0.6469   -24.951    -8.903    -8.323 -0.1369  0.7388 -0.6598
     8 N(14)  Bbb    -0.5974   -23.041    -8.222    -7.686  0.9905  0.1126 -0.0794
              Bcc     1.2444    47.992    17.125    16.009 -0.0157  0.6644  0.7472
 
              Baa    -0.1818   -24.396    -8.705    -8.138  0.2659  0.9104 -0.3169
     9 C(13)  Bbb     0.0790    10.608     3.785     3.538 -0.3648  0.3993  0.8411
              Bcc     0.1028    13.789     4.920     4.599  0.8923 -0.1080  0.4382
 
              Baa    -0.1772   -23.778    -8.485    -7.932  0.6600 -0.2734  0.6997
    10 C(13)  Bbb     0.0814    10.928     3.899     3.645 -0.3143  0.7455  0.5878
              Bcc     0.0958    12.850     4.585     4.286  0.6824  0.6078 -0.4061
 
              Baa    -0.5369   -72.050   -25.709   -24.033  0.9748 -0.1986 -0.1017
    11 C(13)  Bbb     0.0267     3.577     1.276     1.193  0.2157  0.7224  0.6570
              Bcc     0.5103    68.474    24.433    22.840 -0.0570 -0.6624  0.7470
 
              Baa    -0.9940    71.927    25.665    23.992  0.9782 -0.1957 -0.0689
    12 O(17)  Bbb    -0.7857    56.856    20.288    18.965  0.0391 -0.1522  0.9876
              Bcc     1.7798  -128.782   -45.953   -42.957  0.2037  0.9688  0.1413
 
              Baa    -0.1943   -26.071    -9.303    -8.696  0.2034  0.9239 -0.3240
    13 C(13)  Bbb     0.0816    10.945     3.905     3.651  0.6538  0.1182  0.7474
              Bcc     0.1127    15.126     5.397     5.046  0.7289 -0.3639 -0.5800
 
              Baa    -0.2200   -29.519   -10.533    -9.846  0.9526 -0.0548 -0.2992
    14 C(13)  Bbb     0.0699     9.380     3.347     3.129  0.3006  0.3198  0.8985
              Bcc     0.1501    20.139     7.186     6.718 -0.0465  0.9459 -0.3212
 
              Baa    -0.2961  -157.975   -56.369   -52.695  0.6597 -0.1790  0.7299
    15 H(1)   Bbb     0.1438    76.715    27.374    25.589  0.0009  0.9714  0.2374
              Bcc     0.1523    81.260    28.996    27.105  0.7515  0.1560 -0.6410
 
              Baa    -0.3011  -160.668   -57.330   -53.593 -0.1279  0.7056  0.6970
    16 H(1)   Bbb     0.1463    78.044    27.848    26.033  0.9763  0.2134 -0.0369
              Bcc     0.1549    82.624    29.482    27.560  0.1748 -0.6757  0.7162
 
              Baa    -0.2962  -158.051   -56.397   -52.720  0.1401  0.9012 -0.4101
    17 H(1)   Bbb     0.1450    77.381    27.611    25.811  0.7930 -0.3501 -0.4985
              Bcc     0.1512    80.670    28.785    26.909  0.5928  0.2554  0.7638
 
              Baa    -0.2984  -159.223   -56.815   -53.111 -0.0690  0.7495  0.6584
    18 H(1)   Bbb     0.1421    75.830    27.058    25.294  0.7149 -0.4232  0.5566
              Bcc     0.1563    83.393    29.757    27.817  0.6958  0.5091 -0.5066
 
              Baa    -0.2951  -157.453   -56.183   -52.521  0.1786  0.8739 -0.4521
    19 H(1)   Bbb     0.1361    72.597    25.904    24.216  0.8984  0.0426  0.4372
              Bcc     0.1590    84.856    30.279    28.305 -0.4013  0.4842  0.7775
 
              Baa    -0.3027  -161.488   -57.623   -53.867 -0.0756  0.7454  0.6623
    20 H(1)   Bbb     0.1499    79.983    28.540    26.679  0.9084 -0.2224  0.3540
              Bcc     0.1528    81.505    29.083    27.187 -0.4112 -0.6284  0.6603
 
[...]
 7747 Fit       0.001529
 7748 Fit      -0.007773
 7749 Fit      -0.004940
 7750 Fit      -0.002777
 7751 Fit      -0.001077
 7752 Fit       0.000309
 7753 Fit      -0.009138
 7754 Fit      -0.005673
 7755 Fit      -0.003132
 7756 Fit      -0.001171
 7757 Fit      -0.006874
 7758 Fit      -0.003623
 7759 Fit      -0.000404
 7760 Fit      -0.000087
 7761 Fit      -0.000073
 7762 Fit      -0.000408
 7763 Fit      -0.000789
 7764 Fit      -0.000726
 7765 Fit      -0.000368
 7766 Fit       0.000161
 7767 Fit       0.000259
 7768 Fit       0.000229
 7769 Fit       0.000016
 7770 Fit      -0.000390
 7771 Fit      -0.000882
 7772 Fit      -0.001229
 7773 Fit      -0.001247
 7774 Fit      -0.000982
 7775 Fit      -0.000615
 7776 Fit      -0.000282
 7777 Fit      -0.000024
 7778 Fit       0.000340
 7779 Fit       0.000439
 7780 Fit       0.000496
 7781 Fit       0.000477
 7782 Fit       0.000347
 7783 Fit       0.000074
 7784 Fit      -0.000348
 7785 Fit      -0.000875
 7786 Fit      -0.001387
 7787 Fit      -0.001709
 7788 Fit      -0.001723
 7789 Fit      -0.001472
 7790 Fit      -0.000122
 7791 Fit       0.000067
 7792 Fit       0.000217
 7793 Fit       0.000462
 7794 Fit       0.000540
 7795 Fit       0.000613
 7796 Fit       0.000659
 7797 Fit       0.000653
 7798 Fit       0.000564
 7799 Fit       0.000363
 7800 Fit       0.000029
 7801 Fit      -0.000442
 7802 Fit      -0.001026
 7803 Fit      -0.001635
 7804 Fit      -0.002096
 7805 Fit      -0.002230
 7806 Fit       0.000313
 7807 Fit       0.000388
 7808 Fit       0.000542
 7809 Fit       0.000586
 7810 Fit       0.000648
 7811 Fit       0.000713
 7812 Fit       0.000759
 7813 Fit       0.000765
 7814 Fit       0.000703
 7815 Fit       0.000546
 7816 Fit       0.000270
 7817 Fit      -0.000139
 7818 Fit      -0.000685
 7819 Fit       0.000521
 7820 Fit       0.000607
 7821 Fit       0.000602
 7822 Fit       0.000632
 7823 Fit       0.000686
 7824 Fit       0.000749
 7825 Fit       0.000804
 7826 Fit       0.000833
 7827 Fit       0.000812
 7828 Fit       0.000713
 7829 Fit       0.000512
 7830 Fit       0.000201
 7831 Fit       0.000625
 7832 Fit       0.000605
 7833 Fit       0.000631
 7834 Fit       0.000686
 7835 Fit       0.000757
 7836 Fit       0.000832
 7837 Fit       0.000893
 7838 Fit       0.000907
 7839 Fit       0.000833
 7840 Fit       0.000648
 7841 Fit       0.000607
 7842 Fit       0.000576
 7843 Fit       0.000595
 7844 Fit       0.000653
 7845 Fit       0.000749
 7846 Fit       0.000883
 7847 Fit       0.001033
 7848 Fit       0.000574
 7849 Fit       0.000523
 7850 Fit       0.000532
 7851 Fit       0.000623
 7852 Fit       0.000400
 7853 Fit       0.005586
 7854 Fit       0.005382
 7855 Fit       0.005226
 7856 Fit       0.005120
 7857 Fit       0.005073
 7858 Fit       0.005120
 7859 Fit       0.005975
 7860 Fit       0.005748
 7861 Fit       0.005568
 7862 Fit       0.005435
 7863 Fit       0.005349
 7864 Fit       0.005317
 7865 Fit       0.005360
 7866 Fit       0.005527
 7867 Fit       0.006408
 7868 Fit       0.006135
 7869 Fit       0.005928
 7870 Fit       0.005774
 7871 Fit       0.005666
 7872 Fit       0.005605
 7873 Fit       0.005597
 7874 Fit       0.005658
 7875 Fit       0.005824
 7876 Fit       0.006154
 7877 Fit       0.007012
 7878 Fit       0.006626
 7879 Fit       0.006351
 7880 Fit       0.006154
 7881 Fit       0.006015
 7882 Fit       0.005926
 7883 Fit       0.005882
 7884 Fit       0.005887
 7885 Fit       0.005954
 7886 Fit       0.006108
 7887 Fit       0.006385
 7888 Fit       0.006826
 7889 Fit       0.007801
 7890 Fit       0.007190
 7891 Fit       0.006782
 7892 Fit       0.006509
 7893 Fit       0.006330
 7894 Fit       0.006219
 7895 Fit       0.006164
 7896 Fit       0.006162
 7897 Fit       0.006220
 7898 Fit       0.006357
 7899 Fit       0.006604
 7900 Fit       0.007000
 7901 Fit       0.007604
 7902 Fit       0.009131
 7903 Fit       0.008123
 7904 Fit       0.007440
 7905 Fit       0.006992
 7906 Fit       0.006708
 7907 Fit       0.006537
 7908 Fit       0.006447
 7909 Fit       0.006424
 7910 Fit       0.006467
 7911 Fit       0.006587
 7912 Fit       0.006811
 7913 Fit       0.007179
 7914 Fit       0.007754
 7915 Fit       0.008386
 7916 Fit       0.007664
 7917 Fit       0.007181
 7918 Fit       0.006890
 7919 Fit       0.006737
 7920 Fit       0.006688
 7921 Fit       0.006731
 7922 Fit       0.006875
 7923 Fit       0.007151
 7924 Fit       0.007602
 7925 Fit       0.008272
 7926 Fit       0.008509
 7927 Fit       0.007842
 7928 Fit       0.007331
 7929 Fit       0.007051
 7930 Fit       0.006966
 7931 Fit       0.007050
 7932 Fit       0.007313
 7933 Fit       0.007779
 7934 Fit       0.008372
 7935 Fit       0.008839
 7936 Fit       0.009054
 7937 Fit       0.008999
 7938 Fit       0.008006
 7939 Fit       0.007497
 7940 Fit       0.007286
 7941 Fit       0.007482
 7942 Fit       0.007956
 7943 Fit       0.008251
 7944 Fit       0.007692
 7945 Fit      -0.001769
 7946 Fit      -0.003281
 7947 Fit      -0.000421
 7948 Fit       0.000960
 7949 Fit      -0.005492
 7950 Fit      -0.004249
 7951 Fit      -0.001300
 7952 Fit       0.000785
 7953 Fit       0.002139
 7954 Fit       0.002922
 7955 Fit      -0.007837
 7956 Fit      -0.004653
 7957 Fit      -0.001790
 7958 Fit       0.000300
 7959 Fit       0.001829
 7960 Fit       0.002937
 7961 Fit       0.003725
 7962 Fit       0.004295
 7963 Fit       0.004778
 7964 Fit      -0.001741
 7965 Fit       0.000241
 7966 Fit       0.001736
 7967 Fit       0.002882
 7968 Fit       0.003759
 7969 Fit       0.004422
 7970 Fit       0.004929
 7971 Fit       0.005357
 7972 Fit       0.005839
 7973 Fit       0.000565
 7974 Fit       0.001922
 7975 Fit       0.002996
 7976 Fit       0.003853
 7977 Fit       0.004528
 7978 Fit       0.005053
 7979 Fit       0.005459
 7980 Fit       0.005795
 7981 Fit       0.006143
 7982 Fit       0.006653
 7983 Fit       0.002280
 7984 Fit       0.003193
 7985 Fit       0.003954
 7986 Fit       0.004582
 7987 Fit       0.005090
 7988 Fit       0.005489
 7989 Fit       0.005797
 7990 Fit       0.006040
 7991 Fit       0.006262
 7992 Fit       0.006537
 7993 Fit       0.003718
 7994 Fit       0.004325
 7995 Fit       0.004848
 7996 Fit       0.005285
 7997 Fit       0.005634
 7998 Fit       0.005899
 7999 Fit       0.006093
 8000 Fit       0.006237
 8001 Fit       0.006365
 8002 Fit       0.006531
 8003 Fit       0.004760
 8004 Fit       0.005134
 8005 Fit       0.005465
 8006 Fit       0.005739
 8007 Fit       0.005948
 8008 Fit       0.006094
 8009 Fit       0.006183
 8010 Fit       0.006233
 8011 Fit       0.006265
 8012 Fit       0.006309
 8013 Fit       0.006396
 8014 Fit       0.005535
 8015 Fit       0.005728
 8016 Fit       0.005896
 8017 Fit       0.006021
 8018 Fit       0.006098
 8019 Fit       0.006125
 8020 Fit       0.006111
 8021 Fit       0.006067
 8022 Fit       0.006008
 8023 Fit       0.005939
 8024 Fit       0.005841
 8025 Fit       0.006057
 8026 Fit       0.006095
 8027 Fit       0.006109
 8028 Fit       0.006086
 8029 Fit       0.006025
 8030 Fit       0.005928
 8031 Fit       0.005806
 8032 Fit       0.005667
 8033 Fit       0.006128
 8034 Fit       0.005995
 8035 Fit       0.005837
 8036 Fit       0.001050
 8037 Fit       0.002761
 8038 Fit       0.002846
 8039 Fit       0.002982
 8040 Fit       0.004257
 8041 Fit       0.004206
 8042 Fit       0.004172
 8043 Fit       0.004208
 8044 Fit       0.005540
 8045 Fit       0.005410
 8046 Fit       0.005272
 8047 Fit       0.005175
 8048 Fit       0.005186
 8049 Fit       0.006800
 8050 Fit       0.006677
 8051 Fit       0.006481
 8052 Fit       0.006260
 8053 Fit       0.006062
 8054 Fit       0.005937
 8055 Fit       0.007734
 8056 Fit       0.007433
 8057 Fit       0.007121
 8058 Fit       0.006837
 8059 Fit       0.006619
 8060 Fit       0.006512
 8061 Fit       0.008693
 8062 Fit       0.008225
 8063 Fit       0.007799
 8064 Fit       0.007431
 8065 Fit       0.007147
 8066 Fit       0.006983
 8067 Fit       0.009474
 8068 Fit       0.008831
 8069 Fit       0.008293
 8070 Fit       0.007852
 8071 Fit       0.007521
 8072 Fit       0.010039
 8073 Fit       0.009275
 8074 Fit       0.008655
 8075 Fit       0.008161
 8076 Fit       0.007798
 8077 Fit       0.010287
 8078 Fit       0.009431
 8079 Fit       0.008755
 8080 Fit       0.008243
 8081 Fit       0.010392
 8082 Fit       0.009473
 8083 Fit       0.008778
 8084 Fit       0.010313
 8085 Fit       0.009362
 8086 Fit      -0.013380
 8087 Fit      -0.010151
 8088 Fit      -0.013294
 8089 Fit      -0.017276
 8090 Fit      -0.007495
 8091 Fit      -0.009557
 8092 Fit      -0.013085
 8093 Fit      -0.017810
 8094 Fit      -0.022188
 8095 Fit      -0.023918
 8096 Fit      -0.005303
 8097 Fit      -0.006783
 8098 Fit      -0.009159
 8099 Fit      -0.012739
 8100 Fit      -0.017654
 8101 Fit      -0.004018
 8102 Fit      -0.005444
 8103 Fit      -0.007602
 8104 Fit      -0.010831
 8105 Fit      -0.015494
 8106 Fit      -0.002441
 8107 Fit      -0.003567
 8108 Fit      -0.005218
 8109 Fit      -0.007697
 8110 Fit      -0.011419
 8111 Fit      -0.016913
 8112 Fit      -0.001141
 8113 Fit      -0.002013
 8114 Fit      -0.003229
 8115 Fit      -0.005020
 8116 Fit      -0.007721
 8117 Fit      -0.011833
 8118 Fit      -0.000102
 8119 Fit      -0.000814
 8120 Fit      -0.001768
 8121 Fit      -0.003163
 8122 Fit      -0.005295
 8123 Fit      -0.008642
 8124 Fit       0.000182
 8125 Fit      -0.000515
 8126 Fit      -0.001503
 8127 Fit      -0.003004
 8128 Fit      -0.005383
 8129 Fit       0.000752
 8130 Fit       0.000203
 8131 Fit      -0.000583
 8132 Fit      -0.001798
 8133 Fit      -0.003784
 8134 Fit       0.001321
 8135 Fit       0.000958
 8136 Fit       0.000433
 8137 Fit      -0.000399
 8138 Fit       0.002074
 8139 Fit       0.002020
 8140 Fit       0.002008
 8141 Fit       0.003092
 8142 Fit      -0.004508
 8143 Fit      -0.006177
 8144 Fit      -0.003454
 8145 Fit      -0.002192
 8146 Fit      -0.003088
 8147 Fit      -0.005471
 8148 Fit      -0.007332
 8149 Fit      -0.008151
 8150 Fit      -0.004992
 8151 Fit      -0.002329
 8152 Fit      -0.000768
 8153 Fit      -0.000295
 8154 Fit      -0.000712
 8155 Fit      -0.001880
 8156 Fit      -0.003759
 8157 Fit      -0.006282
 8158 Fit      -0.009009
 8159 Fit      -0.010799
 8160 Fit      -0.010496
 8161 Fit      -0.010517
 8162 Fit      -0.006857
 8163 Fit      -0.003562
 8164 Fit      -0.001117
 8165 Fit       0.000395
 8166 Fit       0.001120
 8167 Fit       0.001248
 8168 Fit       0.000922
 8169 Fit       0.000216
 8170 Fit      -0.000854
 8171 Fit      -0.002326
 8172 Fit      -0.004285
 8173 Fit      -0.013674
 8174 Fit      -0.013421
 8175 Fit      -0.008891
 8176 Fit      -0.004807
 8177 Fit      -0.001627
 8178 Fit       0.000534
 8179 Fit       0.001805
 8180 Fit       0.002414
 8181 Fit       0.002567
 8182 Fit       0.002397
 8183 Fit       0.001981
 8184 Fit       0.001353
 8185 Fit       0.000518
 8186 Fit      -0.000547
 8187 Fit      -0.001905
 8188 Fit      -0.005993
 8189 Fit      -0.001910
 8190 Fit       0.000899
 8191 Fit       0.002568
 8192 Fit       0.003402
 8193 Fit       0.003702
 8194 Fit       0.003679
 8195 Fit       0.003447
 8196 Fit       0.003063
 8197 Fit       0.002553
 8198 Fit       0.001927
 8199 Fit       0.001181
 8200 Fit       0.000292
 8201 Fit       0.004963
 8202 Fit       0.004885
 8203 Fit       0.004638
 8204 Fit       0.004296
 8205 Fit       0.003889
 8206 Fit       0.003426
 8207 Fit       0.002911
 8208 Fit       0.002345
 8209 Fit       0.001722
 8210 Fit       0.001027
 8211 Fit       0.006248
 8212 Fit       0.005691
 8213 Fit       0.005167
 8214 Fit       0.004668
 8215 Fit       0.004178
 8216 Fit       0.003688
 8217 Fit       0.003194
 8218 Fit       0.002693
 8219 Fit       0.002183
 8220 Fit       0.006051
 8221 Fit       0.005366
 8222 Fit       0.004786
 8223 Fit       0.004267
 8224 Fit       0.003790
 8225 Fit       0.003346
 8226 Fit       0.002936
 8227 Fit       0.006714
 8228 Fit       0.005796
 8229 Fit       0.005097
 8230 Fit       0.004524
 8231 Fit       0.004037
 8232 Fit       0.003620
 8233 Fit       0.005567
 8234 Fit       0.004854
 8235 Fit       0.004293
 8236 Fit       0.005740
 8237 Fit       0.003531
 8238 Fit       0.003353
 8239 Fit       0.003202
 8240 Fit       0.003052
 8241 Fit       0.002888
 8242 Fit       0.002707
 8243 Fit       0.002519
 8244 Fit       0.004239
 8245 Fit       0.003958
 8246 Fit       0.003760
 8247 Fit       0.003614
 8248 Fit       0.003490
 8249 Fit       0.003365
 8250 Fit       0.003226
 8251 Fit       0.003066
 8252 Fit       0.002891
 8253 Fit       0.002719
 8254 Fit       0.002584
 8255 Fit       0.004590
 8256 Fit       0.004318
 8257 Fit       0.004114
 8258 Fit       0.003964
 8259 Fit       0.003843
 8260 Fit       0.003728
 8261 Fit       0.003602
 8262 Fit       0.003455
 8263 Fit       0.003288
 8264 Fit       0.003114
 8265 Fit       0.002956
 8266 Fit       0.002864
 8267 Fit       0.002914
 8268 Fit       0.004710
 8269 Fit       0.004485
 8270 Fit       0.004319
 8271 Fit       0.004188
 8272 Fit       0.004066
 8273 Fit       0.003935
 8274 Fit       0.003784
 8275 Fit       0.003614
 8276 Fit       0.003435
 8277 Fit       0.003275
 8278 Fit       0.003175
 8279 Fit       0.003207
 8280 Fit       0.003487
 8281 Fit       0.005249
 8282 Fit       0.004940
 8283 Fit       0.004725
 8284 Fit       0.004563
 8285 Fit       0.004422
 8286 Fit       0.004279
 8287 Fit       0.004122
 8288 Fit       0.003948
 8289 Fit       0.003767
 8290 Fit       0.003600
 8291 Fit       0.003479
 8292 Fit       0.003449
 8293 Fit       0.003572
 8294 Fit       0.005661
 8295 Fit       0.005277
 8296 Fit       0.005023
 8297 Fit       0.004828
 8298 Fit       0.004654
 8299 Fit       0.004477
 8300 Fit       0.004290
 8301 Fit       0.004099
 8302 Fit       0.003925
 8303 Fit       0.003796
 8304 Fit       0.003749
 8305 Fit       0.006035
 8306 Fit       0.005591
 8307 Fit       0.005296
 8308 Fit       0.005067
 8309 Fit       0.004863
 8310 Fit       0.004667
 8311 Fit       0.004486
 8312 Fit       0.004347
 8313 Fit       0.004305
 8314 Fit       0.006169
 8315 Fit       0.005740
 8316 Fit       0.005444
 8317 Fit       0.005218
 8318 Fit       0.005054
 8319 Fit       0.005005
 8320 Fit       0.006647
 8321 Fit       0.006108
 8322 Fit       0.005820
 8323 Fit       0.005788
 8324 Fit       0.007208
 8325 Fit       0.006688
 8326 Fit       0.001776
 8327 Fit       0.003618
 8328 Fit       0.004376
 8329 Fit       0.004024
 8330 Fit       0.002503
 8331 Fit       0.004102
 8332 Fit       0.006550
 8333 Fit       0.008385
 8334 Fit       0.009547
 8335 Fit       0.009996
 8336 Fit       0.009704
 8337 Fit       0.008642
 8338 Fit       0.006780
 8339 Fit       0.004074
 8340 Fit       0.005234
 8341 Fit       0.007537
 8342 Fit       0.009650
 8343 Fit       0.011413
 8344 Fit       0.012735
 8345 Fit       0.013566
 8346 Fit       0.013875
 8347 Fit       0.013647
 8348 Fit       0.012870
 8349 Fit       0.011542
 8350 Fit       0.009671
 8351 Fit       0.007278
 8352 Fit       0.004411
 8353 Fit       0.007487
 8354 Fit       0.009637
 8355 Fit       0.011680
 8356 Fit       0.013449
 8357 Fit       0.014848
 8358 Fit       0.015826
 8359 Fit       0.016356
 8360 Fit       0.016421
 8361 Fit       0.016017
 8362 Fit       0.015147
 8363 Fit       0.013823
 8364 Fit       0.012076
 8365 Fit       0.009965
 8366 Fit       0.007599
 8367 Fit       0.005177
 8368 Fit       0.010451
 8369 Fit       0.012545
 8370 Fit       0.014376
 8371 Fit       0.015868
 8372 Fit       0.016978
 8373 Fit       0.017684
 8374 Fit       0.017976
 8375 Fit       0.017850
 8376 Fit       0.017310
 8377 Fit       0.016365
 8378 Fit       0.015038
 8379 Fit       0.013370
 8380 Fit       0.011434
 8381 Fit       0.009358
 8382 Fit       0.007365
 8383 Fit       0.009116
 8384 Fit       0.011498
 8385 Fit       0.013614
 8386 Fit       0.015392
 8387 Fit       0.016798
 8388 Fit       0.017811
 8389 Fit       0.018425
 8390 Fit       0.018636
 8391 Fit       0.018447
 8392 Fit       0.017864
 8393 Fit       0.016900
 8394 Fit       0.015579
 8395 Fit       0.013941
 8396 Fit       0.012057
 8397 Fit       0.010048
 8398 Fit       0.009624
 8399 Fit       0.012167
 8400 Fit       0.014301
 8401 Fit       0.016003
 8402 Fit       0.017266
 8403 Fit       0.018088
 8404 Fit       0.018472
 8405 Fit       0.018423
 8406 Fit       0.017949
 8407 Fit       0.017061
 8408 Fit       0.015780
 8409 Fit       0.014138
 8410 Fit       0.012195
 8411 Fit       0.010050
 8412 Fit       0.011299
 8413 Fit       0.013613
 8414 Fit       0.015393
 8415 Fit       0.016650
 8416 Fit       0.017396
 8417 Fit       0.017642
 8418 Fit       0.017398
 8419 Fit       0.016674
 8420 Fit       0.015486
 8421 Fit       0.013858
 8422 Fit       0.011833
 8423 Fit       0.009916
 8424 Fit       0.012353
 8425 Fit       0.014156
 8426 Fit       0.015356
 8427 Fit       0.015973
 8428 Fit       0.016025
 8429 Fit       0.015525
 8430 Fit       0.014485
 8431 Fit       0.012921
 8432 Fit       0.010859
 8433 Fit       0.011038
 8434 Fit       0.012703
 8435 Fit       0.013598
 8436 Fit       0.013753
 8437 Fit       0.013189
 8438 Fit       0.011920
 8439 Fit       0.010417
 8440 Fit       0.010724
 -----------------------------------------------------------------
 Leave Link  602 at Tue Apr  1 14:01:02 2014, MaxMem=   33554432 cpu:       1.4

 Test job not archived.
 1\1\GINC-HANA\FOpt\RHF\6-31G(d)\C10H22N2O2\PIEONG\01-Apr-2014\0\\#HF/6
 -31G* SCF=tight Test Pop=MK iop(6/33=2) iop(6/42=6) opt # iop(6/50=1)\
 \remark line goes here\\0,1\O,-2.7382038017,-2.0930524133,-0.976021258
 3\N,-2.4548998395,1.1857213835,0.4377090794\C,-2.1925416358,0.15499757
 8,-0.5489541479\C,-0.7376134873,0.1432546404,-1.072942661\C,0.34184402
 4,0.0064704613,0.0047213701\C,1.7515464024,0.0329463148,-0.5920164786\
 C,2.8297655196,-0.1027093042,0.4822026945\N,4.17204225,-0.258568394,-0
 .0528703785\C,4.677838085,0.9389987643,-0.6888034561\C,5.0932693651,-0
 .7363830555,0.9557423432\C,-2.4729628853,-1.2337031666,0.00894304\O,-2
 .4324772015,-1.5748301262,1.1443489093\C,-2.0889424373,2.513057047,-0.
 0184510282\C,-3.8360760254,1.1823583958,0.8887780949\H,-2.8442719329,0
 .2690565253,-1.4193555834\H,-0.6558542459,-0.6775879672,-1.778583455\H
 ,-0.5710402462,1.0442655875,-1.6525687591\H,0.2333878681,0.8010041873,
 0.7353280914\H,0.1973298375,-0.9205969226,0.5513429172\H,1.8735128343,
 -0.7790809601,-1.3039806199\H,1.8827425774,0.9577875367,-1.1473343041\
 H,2.7717777031,0.7474941369,1.1716624432\H,2.6104479239,-0.988857501,1
 .0686416613\H,4.7443532022,1.7888250453,-0.0014470389\H,5.6697381591,0
 .7483663728,-1.0821939084\H,4.0489800054,1.2268188174,-1.5207662621\H,
 4.7419193535,-1.6780017374,1.361418276\H,6.066807052,-0.9085363794,0.5
 107164633\H,5.2214691269,-0.0355241717,1.7867624602\H,-2.6023584419,2.
 8052393286,-0.9396463903\H,-2.350436574,3.2301864161,0.7493380145\H,-1
 .0241256463,2.5930247938,-0.1832842884\H,-4.0899818068,0.2317440898,1.
 3319466545\H,-3.9628317384,1.9410711241,1.6510289866\H,-4.5416949176,1
 .3950706232,0.0795249313\H,-2.8504584254,-2.9563270708,-0.5899364124\\
 Version=EM64L-G09RevC.01\State=1-A\HF=-650.0915013\RMSD=4.176e-09\RMSF
 =7.210e-06\Dipole=-0.1024269,0.4078798,-0.581936\Quadrupole=2.006869,3
 .5218498,-5.5287189,0.7945902,3.7467615,0.6879429\PG=C01 [X(C10H22N2O2
 )]\\@


 THE TRULY SUCCESSFUL PERFORMANCE OF RESEARCHES IN
 INORGANIC CHEMISTRY IS POSSIBLE ONLY TO ONE WHO IS NOT
 ONLY A THEORETICAL CHEMIST, BUT ALSO AN ACCOMPLISHED
 ANALYST AND, MOREOVER, NOT MERELY A PRACTICALLY TRAINED,
 MECHANICAL WORKER, BUT A THINKING CREATIVE ARTIST.
   --  CLEMENS WINKLER, BER. 33, 1697(1900)
 Job cpu time:  0 days  0 hours 12 minutes 50.7 seconds.
 File lengths (MBytes):  RWF=     46 Int=      0 D2E=      0 Chk=      7 Scr=      1
 Normal termination of Gaussian 09 at Tue Apr  1 14:01:02 2014.
