 Entering Gaussian System, Link 0=g09
 Input=M1C.com
 Output=M1C.log
 Initial command:
 /soft/gaussian/g09/l1.exe /scratch/pieong/Gau-1967.inp -scrdir=/scratch/pieong/
 Entering Link 1 = /soft/gaussian/g09/l1.exe PID=      1978.
  
 Copyright (c) 1988,1990,1992,1993,1995,1998,2003,2009,2011,
            Gaussian, Inc.  All Rights Reserved.
  
 This is part of the Gaussian(R) 09 program.  It is based on
 the Gaussian(R) 03 system (copyright 2003, Gaussian, Inc.),
 the Gaussian(R) 98 system (copyright 1998, Gaussian, Inc.),
 the Gaussian(R) 94 system (copyright 1995, Gaussian, Inc.),
 the Gaussian 92(TM) system (copyright 1992, Gaussian, Inc.),
 the Gaussian 90(TM) system (copyright 1990, Gaussian, Inc.),
 the Gaussian 88(TM) system (copyright 1988, Gaussian, Inc.),
 the Gaussian 86(TM) system (copyright 1986, Carnegie Mellon
 University), and the Gaussian 82(TM) system (copyright 1983,
 Carnegie Mellon University). Gaussian is a federally registered
 trademark of Gaussian, Inc.
  
 This software contains proprietary and confidential information,
 including trade secrets, belonging to Gaussian, Inc.
  
 This software is provided under written license and may be
 used, copied, transmitted, or stored only in accord with that
 written license.
  
 The following legend is applicable only to US Government
 contracts under FAR:
  
                    RESTRICTED RIGHTS LEGEND
  
 Use, reproduction and disclosure by the US Government is
 subject to restrictions as set forth in subparagraphs (a)
 and (c) of the Commercial Computer Software - Restricted
 Rights clause in FAR 52.227-19.
  
 Gaussian, Inc.
 340 Quinnipiac St., Bldg. 40, Wallingford CT 06492
  
  
 ---------------------------------------------------------------
 Warning -- This program may not be used in any manner that
 competes with the business of Gaussian, Inc. or will provide
 assistance to any competitor of Gaussian, Inc.  The licensee
 of this program is prohibited from giving any competitor of
 Gaussian, Inc. access to this program.  By using this program,
 the user acknowledges that Gaussian, Inc. is engaged in the
 business of creating and licensing software in the field of
 computational chemistry and represents and warrants to the
 licensee that it is not a competitor of Gaussian, Inc. and that
 it will not use this program in any manner prohibited above.
 ---------------------------------------------------------------
  

 Cite this work as:
 Gaussian 09, Revision C.01,
 M. J. Frisch, G. W. Trucks, H. B. Schlegel, G. E. Scuseria, 
 M. A. Robb, J. R. Cheeseman, G. Scalmani, V. Barone, B. Mennucci, 
 G. A. Petersson, H. Nakatsuji, M. Caricato, X. Li, H. P. Hratchian, 
 A. F. Izmaylov, J. Bloino, G. Zheng, J. L. Sonnenberg, M. Hada, 
 M. Ehara, K. Toyota, R. Fukuda, J. Hasegawa, M. Ishida, T. Nakajima, 
 Y. Honda, O. Kitao, H. Nakai, T. Vreven, J. A. Montgomery, Jr., 
 J. E. Peralta, F. Ogliaro, M. Bearpark, J. J. Heyd, E. Brothers, 
 K. N. Kudin, V. N. Staroverov, T. Keith, R. Kobayashi, J. Normand, 
 K. Raghavachari, A. Rendell, J. C. Burant, S. S. Iyengar, J. Tomasi, 
 M. Cossi, N. Rega, J. M. Millam, M. Klene, J. E. Knox, J. B. Cross, 
 V. Bakken, C. Adamo, J. Jaramillo, R. Gomperts, R. E. Stratmann, 
 O. Yazyev, A. J. Austin, R. Cammi, C. Pomelli, J. W. Ochterski, 
 R. L. Martin, K. Morokuma, V. G. Zakrzewski, G. A. Voth, 
 P. Salvador, J. J. Dannenberg, S. Dapprich, A. D. Daniels, 
 O. Farkas, J. B. Foresman, J. V. Ortiz, J. Cioslowski, 
 and D. J. Fox, Gaussian, Inc., Wallingford CT, 2010.
 
 ******************************************
 Gaussian 09:  EM64L-G09RevC.01 23-Sep-2011
                 1-Apr-2014 
 ******************************************
 %chk=molecule
 ----------------------------------------------------------------------
 #HF/6-31G* SCF=tight Test Pop=MK iop(6/33=2) iop(6/42=6) opt # iop(6/5
 0=1)
 ----------------------------------------------------------------------
 1/18=20,19=15,38=1/1,3;
 2/9=110,12=2,17=6,18=5,40=1/2;
 3/5=1,6=6,7=1,11=9,16=1,25=1,30=1,71=1/1,2,3;
 4//1;
 5/5=2,32=2,38=5/2;
 6/7=2,8=2,9=2,10=2,15=8,20=1,28=1,33=2,42=6,50=1/1,2;
 7//1,2,3,16;
 1/18=20,19=15/3(2);
 2/9=110/2;
 99//99;
 2/9=110/2;
 3/5=1,6=6,7=1,11=9,16=1,25=1,30=1,71=1/1,2,3;
 4/5=5,16=3/1;
 5/5=2,32=2,38=5/2;
 7//1,2,3,16;
 1/18=20,19=15/3(-5);
 2/9=110/2;
 6/7=2,8=2,9=2,10=2,15=8,19=2,20=1,28=1,33=2,42=6,50=1/1,2;
 99/9=1/99;
 ---------------------
 remark line goes here
 ---------------------
 Charge =  0 Multiplicity = 1
 Symbolic Z-Matrix:
 C                     0.353     0.677    -5.143 
 C                    -0.648    -0.476    -5.063 
 C                    -0.43      0.434    -3.852 
 N                    -1.72     -0.052     1.019 
 C                    -0.316     0.379     1. 
 C                     0.365    -0.155    -0.26 
 C                    -0.351     0.389    -1.497 
 N                     0.302    -0.123    -2.708 
 O                     1.731     0.265    -0.278 
 O                     0.306    -1.582    -0.265 
 C                     0.401    -0.165     2.237 
 C                    -0.28      0.369     3.499 
 C                     0.436    -0.175     4.736 
 C                    -0.244     0.358     5.997 
 H                     0.077     1.543    -5.745 
 H                     1.413     0.423    -5.143 
 H                    -0.247    -1.488    -5.01 
 H                    -1.584    -0.368    -5.611 
 H                    -1.222     1.14     -3.604 
 H                    -1.713    -1.061     1.015 
 H                    -2.099     0.231     1.91 
 H                    -0.27      1.468     1.004 
 H                    -0.306     1.478    -1.493 
 H                    -1.393     0.069    -1.483 
 H                     1.227     0.28     -2.731 
 H                     1.726     1.232    -0.274 
 H                    -0.63     -1.823    -0.253 
 H                     1.443     0.155     2.224 
 H                     0.356    -1.254     2.234 
 H                    -1.322     0.048     3.512 
 H                    -0.235     1.458     3.502 
 H                     1.478     0.145     4.722 
 H                     0.391    -1.264     4.732 
 H                     0.266    -0.029     6.878 
 H                    -0.199     1.448     6.001 
 H                    -1.286     0.038     6.01 
 

 GradGradGradGradGradGradGradGradGradGradGradGradGradGradGradGradGradGrad
 Berny optimization.
 Initialization pass.
                           ----------------------------
                           !    Initial Parameters    !
                           ! (Angstroms and Degrees)  !
 --------------------------                            --------------------------
 ! Name  Definition              Value          Derivative Info.                !
 --------------------------------------------------------------------------------
 ! R1    R(1,2)                  1.529          estimate D2E/DX2                !
 ! R2    R(1,3)                  1.5293         estimate D2E/DX2                !
 ! R3    R(1,15)                 1.0902         estimate D2E/DX2                !
 ! R4    R(1,16)                 1.09           estimate D2E/DX2                !
 ! R5    R(2,3)                  1.5304         estimate D2E/DX2                !
 ! R6    R(2,17)                 1.0898         estimate D2E/DX2                !
 ! R7    R(2,18)                 1.09           estimate D2E/DX2                !
 ! R8    R(3,8)                  1.4679         estimate D2E/DX2                !
 ! R9    R(3,19)                 1.0896         estimate D2E/DX2                !
 ! R10   R(4,5)                  1.4688         estimate D2E/DX2                !
 ! R11   R(4,20)                 1.009          estimate D2E/DX2                !
 ! R12   R(4,21)                 1.0088         estimate D2E/DX2                !
 ! R13   R(5,6)                  1.5286         estimate D2E/DX2                !
 ! R14   R(5,11)                 1.5298         estimate D2E/DX2                !
 ! R15   R(5,22)                 1.09           estimate D2E/DX2                !
 ! R16   R(6,7)                  1.5293         estimate D2E/DX2                !
 ! R17   R(6,9)                  1.4292         estimate D2E/DX2                !
 ! R18   R(6,10)                 1.4282         estimate D2E/DX2                !
 ! R19   R(7,8)                  1.468          estimate D2E/DX2                !
 ! R20   R(7,23)                 1.0899         estimate D2E/DX2                !
 ! R21   R(7,24)                 1.0901         estimate D2E/DX2                !
 ! R22   R(8,25)                 1.0092         estimate D2E/DX2                !
 ! R23   R(9,26)                 0.967          estimate D2E/DX2                !
 ! R24   R(10,27)                0.9666         estimate D2E/DX2                !
 ! R25   R(11,12)                1.5302         estimate D2E/DX2                !
 ! R26   R(11,28)                1.0901         estimate D2E/DX2                !
 ! R27   R(11,29)                1.0899         estimate D2E/DX2                !
 ! R28   R(12,13)                1.5293         estimate D2E/DX2                !
 ! R29   R(12,30)                1.0904         estimate D2E/DX2                !
 ! R30   R(12,31)                1.0899         estimate D2E/DX2                !
 ! R31   R(13,14)                1.5286         estimate D2E/DX2                !
 ! R32   R(13,32)                1.0901         estimate D2E/DX2                !
 ! R33   R(13,33)                1.0899         estimate D2E/DX2                !
 ! R34   R(14,34)                1.0891         estimate D2E/DX2                !
 ! R35   R(14,35)                1.0909         estimate D2E/DX2                !
 ! R36   R(14,36)                1.0901         estimate D2E/DX2                !
 ! A1    A(2,1,15)             117.5268         estimate D2E/DX2                !
 ! A2    A(2,1,16)             117.4474         estimate D2E/DX2                !
 ! A3    A(3,1,15)             117.5641         estimate D2E/DX2                !
 ! A4    A(3,1,16)             117.4433         estimate D2E/DX2                !
 ! A5    A(15,1,16)            115.55           estimate D2E/DX2                !
 ! A6    A(1,2,17)             117.5092         estimate D2E/DX2                !
 ! A7    A(1,2,18)             117.4626         estimate D2E/DX2                !
 ! A8    A(3,2,17)             117.4678         estimate D2E/DX2                !
 ! A9    A(3,2,18)             117.4669         estimate D2E/DX2                !
 ! A10   A(17,2,18)            115.6213         estimate D2E/DX2                !
 ! A11   A(1,3,8)              117.5721         estimate D2E/DX2                !
 ! A12   A(1,3,19)             117.4737         estimate D2E/DX2                !
 ! A13   A(2,3,8)              117.5219         estimate D2E/DX2                !
 ! A14   A(2,3,19)             117.5062         estimate D2E/DX2                !
 ! A15   A(8,3,19)             115.5277         estimate D2E/DX2                !
 ! A16   A(5,4,20)             106.6633         estimate D2E/DX2                !
 ! A17   A(5,4,21)             106.7525         estimate D2E/DX2                !
 ! A18   A(20,4,21)            106.6569         estimate D2E/DX2                !
 ! A19   A(4,5,6)              109.5126         estimate D2E/DX2                !
 ! A20   A(4,5,11)             109.464          estimate D2E/DX2                !
 ! A21   A(4,5,22)             109.4795         estimate D2E/DX2                !
 ! A22   A(6,5,11)             109.4815         estimate D2E/DX2                !
 ! A23   A(6,5,22)             109.4665         estimate D2E/DX2                !
 ! A24   A(11,5,22)            109.4231         estimate D2E/DX2                !
 ! A25   A(5,6,7)              109.5054         estimate D2E/DX2                !
 ! A26   A(5,6,9)              109.483          estimate D2E/DX2                !
 ! A27   A(5,6,10)             109.4831         estimate D2E/DX2                !
 ! A28   A(7,6,9)              109.4362         estimate D2E/DX2                !
 ! A29   A(7,6,10)             109.4655         estimate D2E/DX2                !
 ! A30   A(9,6,10)             109.4541         estimate D2E/DX2                !
 ! A31   A(6,7,8)              109.5683         estimate D2E/DX2                !
 ! A32   A(6,7,23)             109.4579         estimate D2E/DX2                !
 ! A33   A(6,7,24)             109.4336         estimate D2E/DX2                !
 ! A34   A(8,7,23)             109.459          estimate D2E/DX2                !
 ! A35   A(8,7,24)             109.4751         estimate D2E/DX2                !
 ! A36   A(23,7,24)            109.4334         estimate D2E/DX2                !
 ! A37   A(3,8,7)              106.7822         estimate D2E/DX2                !
 ! A38   A(3,8,25)             106.7241         estimate D2E/DX2                !
 ! A39   A(7,8,25)             106.6917         estimate D2E/DX2                !
 ! A40   A(6,9,26)             106.79           estimate D2E/DX2                !
 ! A41   A(6,10,27)            106.8023         estimate D2E/DX2                !
 ! A42   A(5,11,12)            109.5239         estimate D2E/DX2                !
 ! A43   A(5,11,28)            109.5107         estimate D2E/DX2                !
 ! A44   A(5,11,29)            109.4952         estimate D2E/DX2                !
 ! A45   A(12,11,28)           109.4383         estimate D2E/DX2                !
 ! A46   A(12,11,29)           109.4247         estimate D2E/DX2                !
 ! A47   A(28,11,29)           109.4346         estimate D2E/DX2                !
 ! A48   A(11,12,13)           109.5478         estimate D2E/DX2                !
 ! A49   A(11,12,30)           109.4134         estimate D2E/DX2                !
 ! A50   A(11,12,31)           109.4247         estimate D2E/DX2                !
 ! A51   A(13,12,30)           109.4536         estimate D2E/DX2                !
 ! A52   A(13,12,31)           109.5031         estimate D2E/DX2                !
 ! A53   A(30,12,31)           109.4848         estimate D2E/DX2                !
 ! A54   A(12,13,14)           109.5699         estimate D2E/DX2                !
 ! A55   A(12,13,32)           109.4336         estimate D2E/DX2                !
 ! A56   A(12,13,33)           109.4579         estimate D2E/DX2                !
 ! A57   A(14,13,32)           109.4786         estimate D2E/DX2                !
 ! A58   A(14,13,33)           109.4538         estimate D2E/DX2                !
 ! A59   A(32,13,33)           109.4334         estimate D2E/DX2                !
 ! A60   A(13,14,34)           109.5794         estimate D2E/DX2                !
 ! A61   A(13,14,35)           109.4547         estimate D2E/DX2                !
 ! A62   A(13,14,36)           109.4329         estimate D2E/DX2                !
 ! A63   A(34,14,35)           109.4369         estimate D2E/DX2                !
 ! A64   A(34,14,36)           109.4917         estimate D2E/DX2                !
 ! A65   A(35,14,36)           109.4317         estimate D2E/DX2                !
 ! D1    D(15,1,2,17)          144.9822         estimate D2E/DX2                !
 ! D2    D(15,1,2,18)           -0.1151         estimate D2E/DX2                !
 ! D3    D(16,1,2,17)            0.0233         estimate D2E/DX2                !
 ! D4    D(16,1,2,18)         -145.074          estimate D2E/DX2                !
 ! D5    D(15,1,3,8)          -145.014          estimate D2E/DX2                !
 ! D6    D(15,1,3,19)            0.0185         estimate D2E/DX2                !
 ! D7    D(16,1,3,8)            -0.0002         estimate D2E/DX2                !
 ! D8    D(16,1,3,19)          145.0323         estimate D2E/DX2                !
 ! D9    D(17,2,3,8)            -0.0445         estimate D2E/DX2                !
 ! D10   D(17,2,3,19)         -145.0478         estimate D2E/DX2                !
 ! D11   D(18,2,3,8)           144.9915         estimate D2E/DX2                !
 ! D12   D(18,2,3,19)           -0.0117         estimate D2E/DX2                !
 ! D13   D(1,3,8,7)            150.0106         estimate D2E/DX2                !
 ! D14   D(1,3,8,25)            36.1906         estimate D2E/DX2                !
 ! D15   D(2,3,8,7)           -141.3778         estimate D2E/DX2                !
 ! D16   D(2,3,8,25)           104.8022         estimate D2E/DX2                !
 ! D17   D(19,3,8,7)             4.3078         estimate D2E/DX2                !
 ! D18   D(19,3,8,25)         -109.5122         estimate D2E/DX2                !
 ! D19   D(20,4,5,6)            60.0015         estimate D2E/DX2                !
 ! D20   D(20,4,5,11)          -60.032          estimate D2E/DX2                !
 ! D21   D(20,4,5,22)         -179.9737         estimate D2E/DX2                !
 ! D22   D(21,4,5,6)           173.7401         estimate D2E/DX2                !
 ! D23   D(21,4,5,11)           53.7066         estimate D2E/DX2                !
 ! D24   D(21,4,5,22)          -66.2352         estimate D2E/DX2                !
 ! D25   D(4,5,6,7)             60.0015         estimate D2E/DX2                !
 ! D26   D(4,5,6,9)            179.9867         estimate D2E/DX2                !
 ! D27   D(4,5,6,10)           -60.0198         estimate D2E/DX2                !
 ! D28   D(11,5,6,7)          -179.9757         estimate D2E/DX2                !
 ! D29   D(11,5,6,9)           -59.9905         estimate D2E/DX2                !
 ! D30   D(11,5,6,10)           60.003          estimate D2E/DX2                !
 ! D31   D(22,5,6,7)           -60.0312         estimate D2E/DX2                !
 ! D32   D(22,5,6,9)            59.9541         estimate D2E/DX2                !
 ! D33   D(22,5,6,10)          179.9476         estimate D2E/DX2                !
 ! D34   D(4,5,11,12)          -59.947          estimate D2E/DX2                !
 ! D35   D(4,5,11,28)         -179.9631         estimate D2E/DX2                !
 ! D36   D(4,5,11,29)           60.043          estimate D2E/DX2                !
 ! D37   D(6,5,11,12)         -179.9996         estimate D2E/DX2                !
 ! D38   D(6,5,11,28)           59.9844         estimate D2E/DX2                !
 ! D39   D(6,5,11,29)          -60.0096         estimate D2E/DX2                !
 ! D40   D(22,5,11,12)          60.0293         estimate D2E/DX2                !
 ! D41   D(22,5,11,28)         -59.9868         estimate D2E/DX2                !
 ! D42   D(22,5,11,29)        -179.9807         estimate D2E/DX2                !
 ! D43   D(5,6,7,8)            179.9979         estimate D2E/DX2                !
 ! D44   D(5,6,7,23)            59.9616         estimate D2E/DX2                !
 ! D45   D(5,6,7,24)           -59.9609         estimate D2E/DX2                !
 ! D46   D(9,6,7,8)             59.984          estimate D2E/DX2                !
 ! D47   D(9,6,7,23)           -60.0523         estimate D2E/DX2                !
 ! D48   D(9,6,7,24)          -179.9749         estimate D2E/DX2                !
 ! D49   D(10,6,7,8)           -59.9701         estimate D2E/DX2                !
 ! D50   D(10,6,7,23)          179.9935         estimate D2E/DX2                !
 ! D51   D(10,6,7,24)           60.071          estimate D2E/DX2                !
 ! D52   D(5,6,9,26)           -59.9911         estimate D2E/DX2                !
 ! D53   D(7,6,9,26)            60.0365         estimate D2E/DX2                !
 ! D54   D(10,6,9,26)          179.9977         estimate D2E/DX2                !
 ! D55   D(5,6,10,27)           60.0213         estimate D2E/DX2                !
 ! D56   D(7,6,10,27)          -60.0243         estimate D2E/DX2                !
 ! D57   D(9,6,10,27)         -179.9675         estimate D2E/DX2                !
 ! D58   D(6,7,8,3)           -179.9992         estimate D2E/DX2                !
 ! D59   D(6,7,8,25)           -66.1572         estimate D2E/DX2                !
 ! D60   D(23,7,8,3)           -59.9635         estimate D2E/DX2                !
 ! D61   D(23,7,8,25)           53.8785         estimate D2E/DX2                !
 ! D62   D(24,7,8,3)            59.9851         estimate D2E/DX2                !
 ! D63   D(24,7,8,25)          173.827          estimate D2E/DX2                !
 ! D64   D(5,11,12,13)         179.9757         estimate D2E/DX2                !
 ! D65   D(5,11,12,30)          59.9859         estimate D2E/DX2                !
 ! D66   D(5,11,12,31)         -59.9669         estimate D2E/DX2                !
 ! D67   D(28,11,12,13)        -59.9639         estimate D2E/DX2                !
 ! D68   D(28,11,12,30)       -179.9537         estimate D2E/DX2                !
 ! D69   D(28,11,12,31)         60.0935         estimate D2E/DX2                !
 ! D70   D(29,11,12,13)         59.9426         estimate D2E/DX2                !
 ! D71   D(29,11,12,30)        -60.0472         estimate D2E/DX2                !
 ! D72   D(29,11,12,31)        180.0            estimate D2E/DX2                !
 ! D73   D(11,12,13,14)       -179.993          estimate D2E/DX2                !
 ! D74   D(11,12,13,32)         59.9605         estimate D2E/DX2                !
 ! D75   D(11,12,13,33)        -59.962          estimate D2E/DX2                !
 ! D76   D(30,12,13,14)        -60.0278         estimate D2E/DX2                !
 ! D77   D(30,12,13,32)        179.9257         estimate D2E/DX2                !
 ! D78   D(30,12,13,33)         60.0032         estimate D2E/DX2                !
 ! D79   D(31,12,13,14)         59.9975         estimate D2E/DX2                !
 ! D80   D(31,12,13,32)        -60.0489         estimate D2E/DX2                !
 ! D81   D(31,12,13,33)       -179.9715         estimate D2E/DX2                !
 ! D82   D(12,13,14,34)       -179.9785         estimate D2E/DX2                !
 ! D83   D(12,13,14,35)        -59.9644         estimate D2E/DX2                !
 ! D84   D(12,13,14,36)         59.9536         estimate D2E/DX2                !
 ! D85   D(32,13,14,34)        -59.9595         estimate D2E/DX2                !
 ! D86   D(32,13,14,35)         60.0546         estimate D2E/DX2                !
 ! D87   D(32,13,14,36)        179.9726         estimate D2E/DX2                !
 ! D88   D(33,13,14,34)         59.988          estimate D2E/DX2                !
 ! D89   D(33,13,14,35)       -179.9979         estimate D2E/DX2                !
 ! D90   D(33,13,14,36)        -60.0799         estimate D2E/DX2                !
 --------------------------------------------------------------------------------
 Trust Radius=3.00D-01 FncErr=1.00D-07 GrdErr=1.00D-07
 Number of steps in this run=    201 maximum allowed number of steps=    216.
 GradGradGradGradGradGradGradGradGradGradGradGradGradGradGradGradGradGrad

                          Input orientation:                          
 ---------------------------------------------------------------------
 Center     Atomic      Atomic             Coordinates (Angstroms)
 Number     Number       Type             X           Y           Z
 ---------------------------------------------------------------------
      1          6           0        0.353000    0.677000   -5.143000
      2          6           0       -0.648000   -0.476000   -5.063000
      3          6           0       -0.430000    0.434000   -3.852000
      4          7           0       -1.720000   -0.052000    1.019000
      5          6           0       -0.316000    0.379000    1.000000
      6          6           0        0.365000   -0.155000   -0.260000
      7          6           0       -0.351000    0.389000   -1.497000
      8          7           0        0.302000   -0.123000   -2.708000
      9          8           0        1.731000    0.265000   -0.278000
     10          8           0        0.306000   -1.582000   -0.265000
     11          6           0        0.401000   -0.165000    2.237000
     12          6           0       -0.280000    0.369000    3.499000
     13          6           0        0.436000   -0.175000    4.736000
     14          6           0       -0.244000    0.358000    5.997000
     15          1           0        0.077000    1.543000   -5.745000
     16          1           0        1.413000    0.423000   -5.143000
     17          1           0       -0.247000   -1.488000   -5.010000
     18          1           0       -1.584000   -0.368000   -5.611000
     19          1           0       -1.222000    1.140000   -3.604000
     20          1           0       -1.713000   -1.061000    1.015000
     21          1           0       -2.099000    0.231000    1.910000
     22          1           0       -0.270000    1.468000    1.004000
     23          1           0       -0.306000    1.478000   -1.493000
     24          1           0       -1.393000    0.069000   -1.483000
     25          1           0        1.227000    0.280000   -2.731000
     26          1           0        1.726000    1.232000   -0.274000
     27          1           0       -0.630000   -1.823000   -0.253000
     28          1           0        1.443000    0.155000    2.224000
     29          1           0        0.356000   -1.254000    2.234000
     30          1           0       -1.322000    0.048000    3.512000
     31          1           0       -0.235000    1.458000    3.502000
     32          1           0        1.478000    0.145000    4.722000
     33          1           0        0.391000   -1.264000    4.732000
     34          1           0        0.266000   -0.029000    6.878000
     35          1           0       -0.199000    1.448000    6.001000
     36          1           0       -1.286000    0.038000    6.010000
 ---------------------------------------------------------------------
                    Distance matrix (angstroms):
                    1          2          3          4          5
     1  C    0.000000
     2  C    1.528990   0.000000
     3  C    1.529320   1.530407   0.000000
     4  N    6.542096   6.190289   5.062306   0.000000
     5  C    6.186503   6.131983   4.853651   1.468788   0.000000
     6  C    4.953388   4.919148   3.725776   2.448198   1.528567
     7  C    3.724497   3.681411   2.356754   2.898085   2.497265
     8  N    2.563557   2.563812   1.467927   4.240761   3.792518
     9  O    5.073150   5.394900   4.179947   3.700284   2.415883
    10  O    5.375888   5.015392   4.180014   2.845036   2.415084
    11  C    7.428033   7.381539   6.174567   2.448455   1.529769
    12  C    8.670624   8.611463   7.352818   2.898489   2.499279
    13  C    9.916019   9.863370   8.653010   4.298785   3.850989
    14  C   11.160545  11.098755   9.851049   5.208374   4.997563
    15  H    1.090200   2.251024   2.251750   7.178087   6.855973
    16  H    1.090007   2.249960   2.250211   6.929037   6.381836
    17  H    2.250536   1.089841   2.251341   6.370296   6.293691
    18  H    2.250115   1.089983   2.251444   6.638919   6.772825
    19  H    2.250226   2.251580   1.089589   4.800104   4.753606
    20  H    6.723836   6.198269   5.250600   1.009032   2.006348
    21  H    7.480376   7.157372   6.002284   1.008767   2.007260
    22  H    6.228918   6.382046   4.967443   2.100744   1.089978
    23  H    3.794520   4.084113   2.582672   3.263501   2.724509
    24  H    4.100461   3.697087   2.583168   2.526178   2.724210
    25  H    2.596003   3.086322   2.006491   4.780955   4.038689
    26  H    5.089235   5.611387   4.252908   3.898130   2.553517
    27  H    5.579282   4.995081   4.252864   2.437729   2.552922
    28  H    7.465472   7.607287   6.364255   3.391083   2.154631
    29  H    7.625543   7.406721   6.364475   2.689016   2.154305
    30  H    8.838003   8.617394   7.427863   2.526550   2.726122
    31  H    8.700099   8.790344   7.427511   3.263528   2.725950
    32  H    9.943182  10.032534   8.788485   4.896756   4.138415
    33  H   10.064023   9.881421   8.788760   4.439779   4.138493
    34  H   12.042028  11.984268  10.762513   6.186486   5.920817
    35  H   11.184269  11.239016   9.907733   5.420679   5.115315
    36  H   11.290884  11.103268   9.906997   5.010642   5.114419
                    6          7          8          9         10
     6  C    0.000000
     7  C    1.529301   0.000000
     8  N    2.449020   1.468017   0.000000
     9  O    1.429224   2.415794   2.845608   0.000000
    10  O    1.428228   2.415432   2.845513   2.332853   0.000000
    11  C    2.497280   3.849049   4.946169   2.877329   2.876963
    12  C    3.849764   4.996545   6.253610   4.280265   4.279894
    13  C    4.996545   6.307753   7.445388   5.197194   5.196783
    14  C    6.307464   7.494828   8.735359   6.579126   6.578658
    15  H    5.749032   4.422715   3.471246   5.852956   6.312564
    16  H    5.027532   4.050453   2.731604   4.877941   5.388911
    17  H    4.971311   3.984359   2.732001   5.420085   4.778040
    18  H    5.698875   4.361001   3.470509   6.311165   5.798760
    19  H    3.921470   2.400436   2.172685   4.533002   4.570885
    20  H    2.600874   3.204323   4.335989   3.910404   2.446672
    21  H    3.305933   3.832508   5.216900   4.411054   3.715053
    22  H    2.152917   2.725033   4.078898   2.663594   3.353302
    23  H    2.153420   1.089937   2.099783   2.664013   3.353525
    24  H    2.153246   1.090119   2.100122   3.354075   2.663818
    25  H    2.652944   2.006171   1.009239   2.504286   3.224351
    26  H    1.943267   2.553489   3.128603   0.967021   3.151996
    27  H    1.942240   2.553100   3.128202   3.151934   0.966603
    28  H    2.725516   4.137515   5.069890   2.520922   3.241151
    29  H    2.725421   4.137591   5.070053   3.241625   2.520929
    30  H    4.137047   5.113629   6.430787   4.871550   4.424140
    31  H    4.136957   5.113337   6.430554   4.424568   4.870787
    32  H    5.113618   6.486967   7.527264   5.007835   5.406134
    33  H    5.113768   6.487173   7.527510   5.406805   5.007830
    34  H    7.139798   8.408094   9.586528   7.310335   7.309983
    35  H    6.487513   7.573941   8.863731   6.674596   6.978444
    36  H    6.486598   7.573142   8.862911   6.978020   6.673417
                   11         12         13         14         15
    11  C    0.000000
    12  C    1.530216   0.000000
    13  C    2.499265   1.529301   0.000000
    14  C    3.850604   2.498284   1.528597   0.000000
    15  H    8.169123   9.325088  10.626936  11.806008   0.000000
    16  H    7.472234   8.806437   9.945188  11.262747   1.844370
    17  H    7.395218   8.709341   9.857737  11.160725   3.135628
    18  H    8.097687   9.232317  10.544101  11.707619   2.535507
    19  H    6.201164   7.206554   8.604289   9.682314   2.536472
    20  H    2.600980   3.204473   4.387373   5.384408   7.462072
    21  H    2.552204   2.419241   3.818028   4.490069   8.065689
    22  H    2.153420   2.726339   4.138322   5.114961   6.758331
    23  H    4.136689   5.113768   6.487173   7.573529   4.269709
    24  H    4.136616   5.113618   6.486967   7.573250   4.743229
    25  H    5.055821   6.410294   7.522552   8.851435   3.464371
    26  H    3.164231   4.359396   5.361329   6.631004   5.722566
    27  H    3.164178   4.359457   5.361192   6.630856   6.480113
    28  H    1.090107   2.154101   2.726370   4.137959   8.203503
    29  H    1.089933   2.153799   2.725921   4.137477   8.459639
    30  H    2.154002   1.090401   2.153711   2.726428   9.480732
    31  H    2.153799   1.089933   2.153993   2.726739   9.252652
    32  H    2.726033   2.153246   1.090119   2.153202  10.652478
    33  H    2.726339   2.153420   1.089937   2.152750  10.851054
    34  H    4.644954   3.445890   2.153690   1.089050  12.721912
    35  H    4.138776   2.725950   2.153504   1.090936  11.749626
    36  H    4.137959   2.725201   2.152610   1.090107  11.929075
                   16         17         18         19         20
    16  H    0.000000
    17  H    2.534800   0.000000
    18  H    3.134759   1.844768   0.000000
    19  H    3.134619   3.135896   2.536367   0.000000
    20  H    7.063646   6.215473   6.663390   5.140101   0.000000
    21  H    7.881359   7.366903   7.562372   5.656819   1.618421
    22  H    6.458337   6.701243   6.989686   4.716731   2.911737
    23  H    4.170190   4.601079   4.690301   2.325859   3.836174
    24  H    4.625425   4.022101   4.155458   2.382210   2.760309
    25  H    2.423384   3.239188   4.076276   2.738490   4.947160
    26  H    4.945666   5.806963   6.480715   4.448378   4.329676
    27  H    5.755907   4.784137   5.633410   4.512099   1.833400
    28  H    7.371934   7.608305   8.415669   6.483674   3.591751
    29  H    7.638698   7.272819   8.129737   6.504119   2.409143
    30  H    9.084595   8.725790   9.136237   7.199994   2.760031
    31  H    8.861329   9.007397   9.391531   7.181262   3.836015
    32  H    9.869130  10.017691  10.789342   8.809217   5.037734
    33  H   10.070058   9.765438  10.567927   8.824391   4.275993
    34  H   12.084054  11.988177  12.629827  10.651433   6.273455
    35  H   11.306543  11.395812  11.834468   9.664234   5.783379
    36  H   11.481386  11.173567  11.631908   9.677164   5.132266
                   21         22         23         24         25
    21  H    0.000000
    22  H    2.386681   0.000000
    23  H    4.043546   2.497280   0.000000
    24  H    3.469457   3.066513   1.779593   0.000000
    25  H    5.709953   4.195543   2.306065   2.909712   0.000000
    26  H    4.516911   2.381805   2.382331   3.541527   2.681819
    27  H    3.324973   3.541233   3.541070   2.382170   3.743199
    28  H    3.556703   2.479262   4.315718   4.668205   4.961281
    29  H    2.887425   3.051894   4.668254   4.315718   5.269063
    30  H    1.789866   3.068089   5.303506   4.995549   6.747316
    31  H    2.741257   2.498265   4.995545   5.302878   6.509640
    32  H    4.550788   4.316174   6.601952   6.837429   7.458447
    33  H    4.049544   4.668911   6.837763   6.601952   7.666759
    34  H    5.508344   6.085407   8.524780   8.524565   9.661878
    35  H    4.671977   4.997544   7.494824   7.703086   8.924434
    36  H    4.184282   5.304450   7.702533   7.493828   9.098286
                   26         27         28         29         30
    26  H    0.000000
    27  H    3.858005   0.000000
    28  H    2.734963   3.787525   0.000000
    29  H    3.787765   2.735165   1.779593   0.000000
    30  H    5.002595   4.260837   3.052150   2.478744   0.000000
    31  H    4.260842   5.002101   2.479269   3.051565   1.780385
    32  H    5.118895   5.750419   2.498265   3.066958   3.051804
    33  H    5.750850   5.119096   3.067626   2.498265   2.478732
    34  H    7.407619   7.407592   4.804050   4.803692   3.722584
    35  H    6.567184   7.070906   4.316682   4.668953   3.068591
    36  H    7.070109   6.566493   4.668504   4.315507   2.498279
                   31         32         33         34         35
    31  H    0.000000
    32  H    2.479262   0.000000
    33  H    3.051894   1.779593   0.000000
    34  H    3.722841   2.479427   2.479146   0.000000
    35  H    2.499279   2.479109   3.051787   1.779574   0.000000
    36  H    3.067746   3.051244   2.478067   1.779499   1.780379
                   36
    36  H    0.000000
 Stoichiometry    C10H22N2O2
 Framework group  C1[X(C10H22N2O2)]
 Deg. of freedom   102
 Full point group                 C1      NOp   1
 Largest Abelian subgroup         C1      NOp   1
 Largest concise Abelian subgroup C1      NOp   1
                         Standard orientation:                         
 ---------------------------------------------------------------------
 Center     Atomic      Atomic             Coordinates (Angstroms)
 Number     Number       Type             X           Y           Z
 ---------------------------------------------------------------------
      1          6           0       -5.198393   -0.403980   -0.636724
      2          6           0       -5.117636    0.653473    0.464676
      3          6           0       -3.907274    0.390245   -0.434146
      4          7           0        0.963983    1.703119   -0.016825
      5          6           0        0.944773    0.279307   -0.377004
      6          6           0       -0.314796   -0.374157    0.191316
      7          6           0       -1.552236    0.313677   -0.386945
      8          7           0       -2.762823   -0.312922    0.157967
      9          8           0       -0.333001   -1.759466   -0.159779
     10          8           0       -0.318776   -0.243813    1.613579
     11          6           0        2.182213   -0.409526    0.201307
     12          6           0        3.443782    0.243939   -0.367015
     13          6           0        4.681222   -0.443895    0.211246
     14          6           0        5.941791    0.208620   -0.356027
     15          1           0       -5.801033   -0.171688   -1.515018
     16          1           0       -5.198136   -1.449940   -0.329992
     17          1           0       -5.063881    0.303626    1.495438
     18          1           0       -5.665779    1.582876    0.310361
     19          1           0       -3.659836    1.145927   -1.179077
     20          1           0        0.960708    1.746626    0.991263
     21          1           0        1.854753    2.067511   -0.319080
     22          1           0        0.947994    0.178863   -1.462340
     23          1           0       -1.549015    0.214232   -1.472331
     24          1           0       -1.538080    1.370387   -0.119506
     25          1           0       -2.786047   -1.256933   -0.198217
     26          1           0       -0.329695   -1.802868   -1.125820
     27          1           0       -0.306669    0.703076    1.807423
     28          1           0        2.169057   -1.466236   -0.066133
     29          1           0        2.179992   -0.310080    1.286692
     30          1           0        3.456939    1.300699   -0.098577
     31          1           0        3.446003    0.144493   -1.452400
     32          1           0        4.667066   -1.500605   -0.056193
     33          1           0        4.678001   -0.344450    1.296632
     34          1           0        6.823105   -0.281342    0.055378
     35          1           0        5.945012    0.109125   -1.442411
     36          1           0        5.954948    1.265330   -0.088587
 ---------------------------------------------------------------------
 Rotational constants (GHZ):      2.2600610      0.2195377      0.2143336
 Standard basis: 6-31G(d) (6D, 7F)
 There are   254 symmetry adapted basis functions of A   symmetry.
 Integral buffers will be    131072 words long.
 Raffenetti 1 integral format.
 Two-electron integral symmetry is turned on.
   254 basis functions,   480 primitive gaussians,   254 cartesian basis functions
    56 alpha electrons       56 beta electrons
       nuclear repulsion energy       963.8579609279 Hartrees.
 NAtoms=   36 NActive=   36 NUniq=   36 SFac= 1.00D+00 NAtFMM=   60 NAOKFM=F Big=F
 One-electron integrals computed using PRISM.
 NBasis=   254 RedAO= T  NBF=   254
 NBsUse=   254 1.00D-06 NBFU=   254
 Harris functional with IExCor=  205 diagonalized for initial guess.
 ExpMin= 1.61D-01 ExpMax= 5.48D+03 ExpMxC= 8.25D+02 IAcc=1 IRadAn=         1 AccDes= 0.00D+00
 HarFok:  IExCor=  205 AccDes= 0.00D+00 IRadAn=         1 IDoV= 1
 ScaDFX=  1.000000  1.000000  1.000000  1.000000
 FoFCou: FMM=F IPFlag=           0 FMFlag=      100000 FMFlg1=           0
         NFxFlg=           0 DoJE=T BraDBF=F KetDBF=T FulRan=T
         Omega=  0.000000  0.000000  1.000000  0.000000  0.000000 ICntrl=     500 IOpCl=  0
         NMat0=    1 NMatS0=    1 NMatT0=    0 NMatD0=    1 NMtDS0=    0 NMtDT0=    0
         I1Cent=           4 NGrid=           0.
 Petite list used in FoFCou.
 Initial guess orbital symmetries:
       Occupied  (A) (A) (A) (A) (A) (A) (A) (A) (A) (A) (A) (A)
                 (A) (A) (A) (A) (A) (A) (A) (A) (A) (A) (A) (A)
                 (A) (A) (A) (A) (A) (A) (A) (A) (A) (A) (A) (A)
                 (A) (A) (A) (A) (A) (A) (A) (A) (A) (A) (A) (A)
                 (A) (A) (A) (A) (A) (A) (A) (A)
       Virtual   (A) (A) (A) (A) (A) (A) (A) (A) (A) (A) (A) (A)
                 (A) (A) (A) (A) (A) (A) (A) (A) (A) (A) (A) (A)
                 (A) (A) (A) (A) (A) (A) (A) (A) (A) (A) (A) (A)
                 (A) (A) (A) (A) (A) (A) (A) (A) (A) (A) (A) (A)
                 (A) (A) (A) (A) (A) (A) (A) (A) (A) (A) (A) (A)
                 (A) (A) (A) (A) (A) (A) (A) (A) (A) (A) (A) (A)
                 (A) (A) (A) (A) (A) (A) (A) (A) (A) (A) (A) (A)
                 (A) (A) (A) (A) (A) (A) (A) (A) (A) (A) (A) (A)
                 (A) (A) (A) (A) (A) (A) (A) (A) (A) (A) (A) (A)
                 (A) (A) (A) (A) (A) (A) (A) (A) (A) (A) (A) (A)
                 (A) (A) (A) (A) (A) (A) (A) (A) (A) (A) (A) (A)
                 (A) (A) (A) (A) (A) (A) (A) (A) (A) (A) (A) (A)
                 (A) (A) (A) (A) (A) (A) (A) (A) (A) (A) (A) (A)
                 (A) (A) (A) (A) (A) (A) (A) (A) (A) (A) (A) (A)
                 (A) (A) (A) (A) (A) (A) (A) (A) (A) (A) (A) (A)
                 (A) (A) (A) (A) (A) (A) (A) (A) (A) (A) (A) (A)
                 (A) (A) (A) (A) (A) (A)
 The electronic state of the initial guess is 1-A.
 Requested convergence on RMS density matrix=1.00D-08 within 128 cycles.
 Requested convergence on MAX density matrix=1.00D-06.
 Requested convergence on             energy=1.00D-06.
 No special actions if energy rises.
 Integral accuracy reduced to 1.0D-05 until final iterations.
 Initial convergence to 1.0D-05 achieved.  Increase integral accuracy.
 SCF Done:  E(RHF) =  -650.012218825     A.U. after   13 cycles
             Convg  =    0.4062D-08             -V/T =  2.0017

 **********************************************************************

            Population analysis using the SCF density.

 **********************************************************************

 Orbital symmetries:
 BldTbl:  Degeneracy threshold= 1.00D-02
       Occupied  (A) (A) (A) (A) (A) (A) (A) (A) (A) (A) (A) (A)
                 (A) (A) (A) (A) (A) (A) (A) (A) (A) (A) (A) (A)
                 (A) (A) (A) (A) (A) (A) (A) (A) (A) (A) (A) (A)
                 (A) (A) (A) (A) (A) (A) (A) (A) (A) (A) (A) (A)
                 (A) (A) (A) (A) (A) (A) (A) (A)
       Virtual   (A) (A) (A) (A) (A) (A) (A) (A) (A) (A) (A) (A)
                 (A) (A) (A) (A) (A) (A) (A) (A) (A) (A) (A) (A)
                 (A) (A) (A) (A) (A) (A) (A) (A) (A) (A) (A) (A)
                 (A) (A) (A) (A) (A) (A) (A) (A) (A) (A) (A) (A)
                 (A) (A) (A) (A) (A) (A) (A) (A) (A) (A) (A) (A)
                 (A) (A) (A) (A) (A) (A) (A) (A) (A) (A) (A) (A)
                 (A) (A) (A) (A) (A) (A) (A) (A) (A) (A) (A) (A)
                 (A) (A) (A) (A) (A) (A) (A) (A) (A) (A) (A) (A)
                 (A) (A) (A) (A) (A) (A) (A) (A) (A) (A) (A) (A)
                 (A) (A) (A) (A) (A) (A) (A) (A) (A) (A) (A) (A)
                 (A) (A) (A) (A) (A) (A) (A) (A) (A) (A) (A) (A)
                 (A) (A) (A) (A) (A) (A) (A) (A) (A) (A) (A) (A)
                 (A) (A) (A) (A) (A) (A) (A) (A) (A) (A) (A) (A)
                 (A) (A) (A) (A) (A) (A) (A) (A) (A) (A) (A) (A)
                 (A) (A) (A) (A) (A) (A) (A) (A) (A) (A) (A) (A)
                 (A) (A) (A) (A) (A) (A) (A) (A) (A) (A) (A) (A)
                 (A) (A) (A) (A) (A) (A)
 The electronic state is 1-A.
 Alpha  occ. eigenvalues --  -20.57598 -20.56742 -15.55405 -15.53884 -11.33938
 Alpha  occ. eigenvalues --  -11.25610 -11.25333 -11.24348 -11.22313 -11.22156
 Alpha  occ. eigenvalues --  -11.21903 -11.21686 -11.21279 -11.21131  -1.40371
 Alpha  occ. eigenvalues --   -1.33559  -1.20837  -1.20449  -1.09242  -1.08090
 Alpha  occ. eigenvalues --   -1.01114  -0.97509  -0.90720  -0.83491  -0.81405
 Alpha  occ. eigenvalues --   -0.80839  -0.79577  -0.78827  -0.71804  -0.67736
 Alpha  occ. eigenvalues --   -0.66296  -0.66017  -0.65434  -0.63499  -0.62888
 Alpha  occ. eigenvalues --   -0.60120  -0.60051  -0.59450  -0.58416  -0.57031
 Alpha  occ. eigenvalues --   -0.54818  -0.53504  -0.52703  -0.51824  -0.50580
 Alpha  occ. eigenvalues --   -0.50391  -0.49230  -0.48748  -0.47506  -0.47294
 Alpha  occ. eigenvalues --   -0.45879  -0.44135  -0.42922  -0.40539  -0.38330
 Alpha  occ. eigenvalues --   -0.34525
 Alpha virt. eigenvalues --    0.19123   0.21009   0.22664   0.24763   0.25029
 Alpha virt. eigenvalues --    0.26198   0.26791   0.27544   0.28602   0.29179
 Alpha virt. eigenvalues --    0.30643   0.31022   0.32104   0.32360   0.32800
 Alpha virt. eigenvalues --    0.33276   0.33722   0.35020   0.35489   0.35786
 Alpha virt. eigenvalues --    0.37129   0.38012   0.38562   0.38842   0.40352
 Alpha virt. eigenvalues --    0.41764   0.43075   0.43605   0.44070   0.44633
 Alpha virt. eigenvalues --    0.45350   0.48721   0.50568   0.51998   0.53513
 Alpha virt. eigenvalues --    0.54113   0.69395   0.70109   0.73602   0.75517
 Alpha virt. eigenvalues --    0.77010   0.77826   0.78395   0.78696   0.80761
 Alpha virt. eigenvalues --    0.83043   0.84461   0.85271   0.85943   0.87202
 Alpha virt. eigenvalues --    0.88045   0.89545   0.90561   0.90881   0.91408
 Alpha virt. eigenvalues --    0.93818   0.95206   0.96421   0.97700   0.98506
 Alpha virt. eigenvalues --    1.01307   1.02137   1.03087   1.03676   1.04995
 Alpha virt. eigenvalues --    1.05839   1.09388   1.11423   1.11632   1.12543
 Alpha virt. eigenvalues --    1.13195   1.14054   1.15187   1.15841   1.16576
 Alpha virt. eigenvalues --    1.17341   1.17764   1.19008   1.19619   1.20243
 Alpha virt. eigenvalues --    1.20905   1.21404   1.21750   1.22039   1.22245
 Alpha virt. eigenvalues --    1.22780   1.23091   1.24396   1.25780   1.26983
 Alpha virt. eigenvalues --    1.27801   1.30756   1.33846   1.34104   1.36299
 Alpha virt. eigenvalues --    1.36743   1.38591   1.40346   1.45471   1.46473
 Alpha virt. eigenvalues --    1.52864   1.55410   1.56842   1.58351   1.59948
 Alpha virt. eigenvalues --    1.60374   1.63243   1.67438   1.70272   1.70960
 Alpha virt. eigenvalues --    1.74753   1.76812   1.79175   1.84045   1.86536
 Alpha virt. eigenvalues --    1.90082   1.90506   1.94527   1.95810   1.99270
 Alpha virt. eigenvalues --    2.02698   2.05147   2.08963   2.11772   2.13792
 Alpha virt. eigenvalues --    2.14191   2.15186   2.15612   2.16414   2.19403
 Alpha virt. eigenvalues --    2.20179   2.22052   2.23420   2.24362   2.26097
 Alpha virt. eigenvalues --    2.27425   2.28598   2.29424   2.31450   2.33761
 Alpha virt. eigenvalues --    2.35661   2.37340   2.38147   2.39371   2.41399
 Alpha virt. eigenvalues --    2.44020   2.48625   2.52074   2.53220   2.54052
 Alpha virt. eigenvalues --    2.56792   2.57770   2.59175   2.60389   2.61109
 Alpha virt. eigenvalues --    2.62983   2.66706   2.68550   2.70863   2.72327
 Alpha virt. eigenvalues --    2.75395   2.77248   2.78422   2.80101   2.82591
 Alpha virt. eigenvalues --    2.83985   2.85079   2.86677   2.89543   2.91219
 Alpha virt. eigenvalues --    2.92029   2.93928   2.99066   3.01098   3.05160
 Alpha virt. eigenvalues --    3.08434   3.11796   3.13610   3.14757   3.18976
 Alpha virt. eigenvalues --    3.28153   3.34301   3.38255   3.42876   4.22097
 Alpha virt. eigenvalues --    4.28531   4.38968   4.42296   4.59150   4.59514
 Alpha virt. eigenvalues --    4.71963   4.81179   4.82275   4.83823   4.90097
 Alpha virt. eigenvalues --    4.92476   5.00067   5.15022
          Condensed to atoms (all electrons):
              1          2          3          4          5          6
     1  C    5.214218   0.217378   0.276339   0.000000   0.000002  -0.000096
     2  C    0.217378   5.208215   0.273885   0.000000  -0.000001  -0.000099
     3  C    0.276339   0.273885   4.979339  -0.000004  -0.000155   0.006820
     4  N    0.000000   0.000000  -0.000004   7.105614   0.267148  -0.052172
     5  C    0.000002  -0.000001  -0.000155   0.267148   5.084081   0.388682
     6  C   -0.000096  -0.000099   0.006820  -0.052172   0.388682   4.449768
     7  C    0.002684   0.002274  -0.058051  -0.008006  -0.100374   0.392476
     8  N   -0.034444  -0.053905   0.273494   0.000057   0.004022  -0.057465
     9  O    0.000000  -0.000002   0.000001   0.002062  -0.053745   0.213191
    10  O   -0.000002   0.000009  -0.000044  -0.004346  -0.055366   0.212380
    11  C    0.000000   0.000000   0.000003  -0.085529   0.351476  -0.056631
    12  C    0.000000   0.000000   0.000000  -0.013222  -0.059091   0.004899
    13  C    0.000000   0.000000   0.000000   0.000444   0.004881  -0.000077
    14  C    0.000000   0.000000   0.000000   0.000008  -0.000142   0.000001
    15  H    0.390141  -0.021795  -0.024791   0.000000   0.000000   0.000001
    16  H    0.394721  -0.022898  -0.026590   0.000000   0.000000  -0.000004
    17  H   -0.021171   0.390829  -0.022651   0.000000   0.000000  -0.000011
    18  H   -0.022236   0.386621  -0.027327   0.000000   0.000000   0.000000
    19  H   -0.018382  -0.034889   0.392109  -0.000004   0.000004   0.000092
    20  H    0.000000   0.000000   0.000001   0.318627  -0.045551  -0.008453
    21  H    0.000000   0.000000   0.000000   0.341406  -0.038845   0.004732
    22  H    0.000000   0.000000  -0.000012  -0.034779   0.388837  -0.031367
    23  H    0.000833  -0.000550  -0.006447   0.000835   0.000548  -0.045042
    24  H   -0.000211   0.001004  -0.004251   0.004316  -0.005009  -0.021337
    25  H   -0.009296   0.004747  -0.038377  -0.000023   0.000214  -0.010210
    26  H    0.000000   0.000001  -0.000060   0.000037  -0.002038  -0.018053
    27  H    0.000001  -0.000003  -0.000065   0.002404  -0.003649  -0.017089
    28  H    0.000000   0.000000   0.000000   0.004867  -0.035881  -0.005646
    29  H    0.000000   0.000000   0.000000  -0.001066  -0.035203  -0.007473
    30  H    0.000000   0.000000   0.000000   0.002485  -0.006068  -0.000221
    31  H    0.000000   0.000000   0.000000   0.000545  -0.003627  -0.000052
    32  H    0.000000   0.000000   0.000000  -0.000018  -0.000065  -0.000007
    33  H    0.000000   0.000000   0.000000   0.000019  -0.000055   0.000002
    34  H    0.000000   0.000000   0.000000   0.000000   0.000002   0.000000
    35  H    0.000000   0.000000   0.000000   0.000000  -0.000002   0.000000
    36  H    0.000000   0.000000   0.000000  -0.000009   0.000003   0.000000
              7          8          9         10         11         12
     1  C    0.002684  -0.034444   0.000000  -0.000002   0.000000   0.000000
     2  C    0.002274  -0.053905  -0.000002   0.000009   0.000000   0.000000
     3  C   -0.058051   0.273494   0.000001  -0.000044   0.000003   0.000000
     4  N   -0.008006   0.000057   0.002062  -0.004346  -0.085529  -0.013222
     5  C   -0.100374   0.004022  -0.053745  -0.055366   0.351476  -0.059091
     6  C    0.392476  -0.057465   0.213191   0.212380  -0.056631   0.004899
     7  C    5.036384   0.271980  -0.057750  -0.058413   0.006892  -0.000088
     8  N    0.271980   7.085963  -0.003972   0.000679  -0.000085   0.000000
     9  O   -0.057750  -0.003972   8.423341  -0.028611  -0.005080   0.000165
    10  O   -0.058413   0.000679  -0.028611   8.416778  -0.009497   0.000229
    11  C    0.006892  -0.000085  -0.005080  -0.009497   5.187260   0.335673
    12  C   -0.000088   0.000000   0.000165   0.000229   0.335673   5.163791
    13  C    0.000001   0.000000   0.000003   0.000001  -0.061865   0.354247
    14  C    0.000000   0.000000   0.000000   0.000000   0.005297  -0.069390
    15  H   -0.000082   0.001694   0.000000   0.000000   0.000000   0.000000
    16  H    0.000109  -0.002588  -0.000004   0.000000   0.000000   0.000000
    17  H    0.000125   0.001541   0.000000   0.000000   0.000000   0.000000
    18  H   -0.000048   0.001986   0.000000   0.000000   0.000000   0.000000
    19  H   -0.006624  -0.038247  -0.000012  -0.000005   0.000000   0.000000
    20  H    0.000846  -0.000063   0.000039   0.008738  -0.001263  -0.000459
    21  H   -0.000072   0.000004  -0.000063   0.000011  -0.002280   0.000465
    22  H   -0.004645  -0.000112   0.001321   0.003301  -0.048610  -0.004590
    23  H    0.385865  -0.058928  -0.000554   0.003569  -0.000165  -0.000001
    24  H    0.388788  -0.039499   0.002916   0.000235   0.000065  -0.000005
    25  H   -0.031790   0.321024   0.010403   0.000490  -0.000010   0.000000
    26  H   -0.002019   0.000256   0.254324   0.003107   0.000041  -0.000065
    27  H   -0.003067   0.000928   0.002847   0.254977   0.000502  -0.000047
    28  H    0.000082  -0.000003   0.006605   0.000323   0.389469  -0.038349
    29  H    0.000165  -0.000002   0.000255   0.007641   0.396762  -0.043188
    30  H   -0.000007   0.000000  -0.000007   0.000002  -0.044780   0.389524
    31  H   -0.000006   0.000000   0.000001  -0.000006  -0.041789   0.395112
    32  H    0.000000   0.000000  -0.000003   0.000000  -0.003493  -0.043454
    33  H    0.000000   0.000000   0.000000  -0.000004  -0.003189  -0.043499
    34  H    0.000000   0.000000   0.000000   0.000000  -0.000124   0.005489
    35  H    0.000000   0.000000   0.000000   0.000000  -0.000070  -0.004988
    36  H    0.000000   0.000000   0.000000   0.000000  -0.000088  -0.005084
             13         14         15         16         17         18
     1  C    0.000000   0.000000   0.390141   0.394721  -0.021171  -0.022236
     2  C    0.000000   0.000000  -0.021795  -0.022898   0.390829   0.386621
     3  C    0.000000   0.000000  -0.024791  -0.026590  -0.022651  -0.027327
     4  N    0.000444   0.000008   0.000000   0.000000   0.000000   0.000000
     5  C    0.004881  -0.000142   0.000000   0.000000   0.000000   0.000000
     6  C   -0.000077   0.000001   0.000001  -0.000004  -0.000011   0.000000
     7  C    0.000001   0.000000  -0.000082   0.000109   0.000125  -0.000048
     8  N    0.000000   0.000000   0.001694  -0.002588   0.001541   0.001986
     9  O    0.000003   0.000000   0.000000  -0.000004   0.000000   0.000000
    10  O    0.000001   0.000000   0.000000   0.000000   0.000000   0.000000
    11  C   -0.061865   0.005297   0.000000   0.000000   0.000000   0.000000
    12  C    0.354247  -0.069390   0.000000   0.000000   0.000000   0.000000
    13  C    5.057159   0.342104   0.000000   0.000000   0.000000   0.000000
    14  C    0.342104   5.104930   0.000000   0.000000   0.000000   0.000000
    15  H    0.000000   0.000000   0.503689  -0.019226   0.001215  -0.004202
    16  H    0.000000   0.000000  -0.019226   0.490672  -0.003174   0.001341
    17  H    0.000000   0.000000   0.001215  -0.003174   0.472536  -0.017341
    18  H    0.000000   0.000000  -0.004202   0.001341  -0.017341   0.512748
    19  H    0.000000   0.000000  -0.003611   0.001541   0.001522  -0.001338
    20  H   -0.000039   0.000001   0.000000   0.000000   0.000000   0.000000
    21  H    0.000077  -0.000003   0.000000   0.000000   0.000000   0.000000
    22  H   -0.000090  -0.000001   0.000000   0.000000   0.000000   0.000000
    23  H    0.000000   0.000000  -0.000018   0.000014   0.000024   0.000020
    24  H    0.000000   0.000000   0.000006   0.000001  -0.000031  -0.000050
    25  H    0.000000   0.000000   0.000215   0.002895  -0.000070  -0.000119
    26  H    0.000000   0.000000   0.000000   0.000000   0.000000   0.000000
    27  H    0.000000   0.000000   0.000000   0.000000   0.000002   0.000000
    28  H   -0.003354  -0.000019   0.000000   0.000000   0.000000   0.000000
    29  H   -0.003299  -0.000051   0.000000   0.000000   0.000000   0.000000
    30  H   -0.038527  -0.002996   0.000000   0.000000   0.000000   0.000000
    31  H   -0.038342  -0.003595   0.000000   0.000000   0.000000   0.000000
    32  H    0.403442  -0.040511   0.000000   0.000000   0.000000   0.000000
    33  H    0.402182  -0.040477   0.000000   0.000000   0.000000   0.000000
    34  H   -0.039408   0.394517   0.000000   0.000000   0.000000   0.000000
    35  H   -0.040172   0.392497   0.000000   0.000000   0.000000   0.000000
    36  H   -0.040126   0.392049   0.000000   0.000000   0.000000   0.000000
             19         20         21         22         23         24
     1  C   -0.018382   0.000000   0.000000   0.000000   0.000833  -0.000211
     2  C   -0.034889   0.000000   0.000000   0.000000  -0.000550   0.001004
     3  C    0.392109   0.000001   0.000000  -0.000012  -0.006447  -0.004251
     4  N   -0.000004   0.318627   0.341406  -0.034779   0.000835   0.004316
     5  C    0.000004  -0.045551  -0.038845   0.388837   0.000548  -0.005009
     6  C    0.000092  -0.008453   0.004732  -0.031367  -0.045042  -0.021337
     7  C   -0.006624   0.000846  -0.000072  -0.004645   0.385865   0.388788
     8  N   -0.038247  -0.000063   0.000004  -0.000112  -0.058928  -0.039499
     9  O   -0.000012   0.000039  -0.000063   0.001321  -0.000554   0.002916
    10  O   -0.000005   0.008738   0.000011   0.003301   0.003569   0.000235
    11  C    0.000000  -0.001263  -0.002280  -0.048610  -0.000165   0.000065
    12  C    0.000000  -0.000459   0.000465  -0.004590  -0.000001  -0.000005
    13  C    0.000000  -0.000039   0.000077  -0.000090   0.000000   0.000000
    14  C    0.000000   0.000001  -0.000003  -0.000001   0.000000   0.000000
    15  H   -0.003611   0.000000   0.000000   0.000000  -0.000018   0.000006
    16  H    0.001541   0.000000   0.000000   0.000000   0.000014   0.000001
    17  H    0.001522   0.000000   0.000000   0.000000   0.000024  -0.000031
    18  H   -0.001338   0.000000   0.000000   0.000000   0.000020  -0.000050
    19  H    0.525400   0.000000   0.000000   0.000004   0.005019  -0.001728
    20  H    0.000000   0.422127  -0.025955   0.006058  -0.000062  -0.000508
    21  H    0.000000  -0.025955   0.356208  -0.003408  -0.000042   0.000225
    22  H    0.000004   0.006058  -0.003408   0.558082   0.001968   0.000095
    23  H    0.005019  -0.000062  -0.000042   0.001968   0.619624  -0.030483
    24  H   -0.001728  -0.000508   0.000225   0.000095  -0.030483   0.500273
    25  H    0.002251  -0.000001   0.000000  -0.000022  -0.004033   0.005034
    26  H   -0.000002   0.000004  -0.000002   0.002388   0.001937   0.000062
    27  H    0.000005   0.004353  -0.000013  -0.000014   0.000187   0.001327
    28  H    0.000000   0.000077  -0.000041   0.001163  -0.000012  -0.000021
    29  H    0.000000   0.004002  -0.000065   0.004005  -0.000012  -0.000011
    30  H    0.000000   0.001217   0.004299   0.000953   0.000000   0.000000
    31  H    0.000000   0.000043   0.000245   0.002441  -0.000001   0.000000
    32  H    0.000000   0.000002  -0.000003   0.000021   0.000000   0.000000
    33  H    0.000000  -0.000006   0.000019  -0.000004   0.000000   0.000000
    34  H    0.000000   0.000000   0.000000   0.000000   0.000000   0.000000
    35  H    0.000000   0.000000   0.000002  -0.000003   0.000000   0.000000
    36  H    0.000000   0.000000  -0.000018   0.000000   0.000000   0.000000
             25         26         27         28         29         30
     1  C   -0.009296   0.000000   0.000001   0.000000   0.000000   0.000000
     2  C    0.004747   0.000001  -0.000003   0.000000   0.000000   0.000000
     3  C   -0.038377  -0.000060  -0.000065   0.000000   0.000000   0.000000
     4  N   -0.000023   0.000037   0.002404   0.004867  -0.001066   0.002485
     5  C    0.000214  -0.002038  -0.003649  -0.035881  -0.035203  -0.006068
     6  C   -0.010210  -0.018053  -0.017089  -0.005646  -0.007473  -0.000221
     7  C   -0.031790  -0.002019  -0.003067   0.000082   0.000165  -0.000007
     8  N    0.321024   0.000256   0.000928  -0.000003  -0.000002   0.000000
     9  O    0.010403   0.254324   0.002847   0.006605   0.000255  -0.000007
    10  O    0.000490   0.003107   0.254977   0.000323   0.007641   0.000002
    11  C   -0.000010   0.000041   0.000502   0.389469   0.396762  -0.044780
    12  C    0.000000  -0.000065  -0.000047  -0.038349  -0.043188   0.389524
    13  C    0.000000   0.000000   0.000000  -0.003354  -0.003299  -0.038527
    14  C    0.000000   0.000000   0.000000  -0.000019  -0.000051  -0.002996
    15  H    0.000215   0.000000   0.000000   0.000000   0.000000   0.000000
    16  H    0.002895   0.000000   0.000000   0.000000   0.000000   0.000000
    17  H   -0.000070   0.000000   0.000002   0.000000   0.000000   0.000000
    18  H   -0.000119   0.000000   0.000000   0.000000   0.000000   0.000000
    19  H    0.002251  -0.000002   0.000005   0.000000   0.000000   0.000000
    20  H   -0.000001   0.000004   0.004353   0.000077   0.004002   0.001217
    21  H    0.000000  -0.000002  -0.000013  -0.000041  -0.000065   0.004299
    22  H   -0.000022   0.002388  -0.000014   0.001163   0.004005   0.000953
    23  H   -0.004033   0.001937   0.000187  -0.000012  -0.000012   0.000000
    24  H    0.005034   0.000062   0.001327  -0.000021  -0.000011   0.000000
    25  H    0.399285  -0.000011  -0.000017  -0.000001  -0.000001   0.000000
    26  H   -0.000011   0.319822  -0.000160   0.000004   0.000020   0.000001
    27  H   -0.000017  -0.000160   0.309805  -0.000018  -0.000441  -0.000005
    28  H   -0.000001   0.000004  -0.000018   0.512228  -0.017333   0.004225
    29  H   -0.000001   0.000020  -0.000441  -0.017333   0.513404  -0.001525
    30  H    0.000000   0.000001  -0.000005   0.004225  -0.001525   0.583100
    31  H    0.000000  -0.000001   0.000000  -0.001753   0.003978  -0.030115
    32  H    0.000000   0.000000   0.000000   0.001791   0.000292   0.004339
    33  H    0.000000   0.000000   0.000000   0.000308   0.001982  -0.002468
    34  H    0.000000   0.000000   0.000000   0.000000   0.000001  -0.000064
    35  H    0.000000   0.000000   0.000000   0.000016  -0.000003   0.000236
    36  H    0.000000   0.000000   0.000000  -0.000005   0.000015   0.002745
             31         32         33         34         35         36
     1  C    0.000000   0.000000   0.000000   0.000000   0.000000   0.000000
     2  C    0.000000   0.000000   0.000000   0.000000   0.000000   0.000000
     3  C    0.000000   0.000000   0.000000   0.000000   0.000000   0.000000
     4  N    0.000545  -0.000018   0.000019   0.000000   0.000000  -0.000009
     5  C   -0.003627  -0.000065  -0.000055   0.000002  -0.000002   0.000003
     6  C   -0.000052  -0.000007   0.000002   0.000000   0.000000   0.000000
     7  C   -0.000006   0.000000   0.000000   0.000000   0.000000   0.000000
     8  N    0.000000   0.000000   0.000000   0.000000   0.000000   0.000000
     9  O    0.000001  -0.000003   0.000000   0.000000   0.000000   0.000000
    10  O   -0.000006   0.000000  -0.000004   0.000000   0.000000   0.000000
    11  C   -0.041789  -0.003493  -0.003189  -0.000124  -0.000070  -0.000088
    12  C    0.395112  -0.043454  -0.043499   0.005489  -0.004988  -0.005084
    13  C   -0.038342   0.403442   0.402182  -0.039408  -0.040172  -0.040126
    14  C   -0.003595  -0.040511  -0.040477   0.394517   0.392497   0.392049
    15  H    0.000000   0.000000   0.000000   0.000000   0.000000   0.000000
    16  H    0.000000   0.000000   0.000000   0.000000   0.000000   0.000000
    17  H    0.000000   0.000000   0.000000   0.000000   0.000000   0.000000
    18  H    0.000000   0.000000   0.000000   0.000000   0.000000   0.000000
    19  H    0.000000   0.000000   0.000000   0.000000   0.000000   0.000000
    20  H    0.000043   0.000002  -0.000006   0.000000   0.000000   0.000000
    21  H    0.000245  -0.000003   0.000019   0.000000   0.000002  -0.000018
    22  H    0.002441   0.000021  -0.000004   0.000000  -0.000003   0.000000
    23  H   -0.000001   0.000000   0.000000   0.000000   0.000000   0.000000
    24  H    0.000000   0.000000   0.000000   0.000000   0.000000   0.000000
    25  H    0.000000   0.000000   0.000000   0.000000   0.000000   0.000000
    26  H   -0.000001   0.000000   0.000000   0.000000   0.000000   0.000000
    27  H    0.000000   0.000000   0.000000   0.000000   0.000000   0.000000
    28  H   -0.001753   0.001791   0.000308   0.000000   0.000016  -0.000005
    29  H    0.003978   0.000292   0.001982   0.000001  -0.000003   0.000015
    30  H   -0.030115   0.004339  -0.002468  -0.000064   0.000236   0.002745
    31  H    0.558093  -0.002461   0.004270  -0.000049   0.002618   0.000240
    32  H   -0.002461   0.547268  -0.026622  -0.002487  -0.002765   0.004315
    33  H    0.004270  -0.026622   0.549864  -0.002574   0.004328  -0.002772
    34  H   -0.000049  -0.002487  -0.002574   0.533688  -0.025691  -0.025581
    35  H    0.002618  -0.002765   0.004328  -0.025691   0.547557  -0.027968
    36  H    0.000240   0.004315  -0.002772  -0.025581  -0.027968   0.549010
 Mulliken atomic charges:
              1
     1  C   -0.390481
     2  C   -0.350823
     3  C    0.006832
     4  N   -0.851694
     5  C   -0.045033
     6  C    0.658459
     7  C   -0.157631
     8  N   -0.674313
     9  O   -0.767669
    10  O   -0.756177
    11  C   -0.308890
    12  C   -0.324074
    13  C   -0.299243
    14  C   -0.474220
    15  H    0.176765
    16  H    0.183188
    17  H    0.196655
    18  H    0.169944
    19  H    0.176894
    20  H    0.316224
    21  H    0.363115
    22  H    0.157019
    23  H    0.125909
    24  H    0.198796
    25  H    0.347421
    26  H    0.440407
    27  H    0.447247
    28  H    0.181278
    29  H    0.177152
    30  H    0.133657
    31  H    0.154211
    32  H    0.160418
    33  H    0.158695
    34  H    0.162281
    35  H    0.154407
    36  H    0.153273
 Sum of Mulliken atomic charges =   0.00000
 Mulliken charges with hydrogens summed into heavy atoms:
              1
     1  C   -0.030527
     2  C    0.015775
     3  C    0.183725
     4  N   -0.172355
     5  C    0.111987
     6  C    0.658459
     7  C    0.167073
     8  N   -0.326892
     9  O   -0.327262
    10  O   -0.308930
    11  C    0.049541
    12  C   -0.036205
    13  C    0.019870
    14  C   -0.004259
 Sum of Mulliken charges with hydrogens summed into heavy atoms =   0.00000
 DipInt: DoE/N= T F RetVal/Mat= T F Init=T NMatP=  1 IDeriv=0 Min/MaxMlt=  0  4
 Entering OneElI...
 OneElI was handed    33386435 working-precision words.
 Multipole integrals L=0 to 4 MinM= 0 MaxM= 0.
 Requested accuracy = 0.1000D-12
 PrsmSu:  NPrtUS=   1 ThrOK=F IAlg=1 NPAlg=1 LenDen=           0.
 Prism:   IPart=     0 DynPar=F LinDyn=F Incr=          40.
 PRISM was handed    33063841 working-precision words and  4005 shell-pairs
 IPart=  0 NShTot=        4005 NBatch=          47 AvBLen=        85.2
 PrSmSu:  NxtVal=             41.
 Electronic moments (au):
       -112.00000000          0.65597844          0.61971724         -1.10605672
      -4636.81637096       -367.66027506       -256.87390603          0.61497848
          3.93660990          6.20109779      -2342.01709371        -14.87868268
       -177.52873137        -11.92485395       -666.15142613       1387.41284387
        161.03821812          7.66173546         45.41365740        205.07745677
    -418926.21513455      -3925.87016758      -2165.07430194       3783.05787341
       2333.57091787       -536.31135216       -149.90407051        109.90508213
        103.12939774      -9529.39779832      -9075.17794707       -512.74304706
       -500.89128362        -53.59925567         61.44664532
 Electronic spatial extent (au):  <R**2>=           5261.3506
 DipInt: DoE/N= F T RetVal/Mat= T F Init=T NMatP=  1 IDeriv=0 Min/MaxMlt=  0  4
 Nuclear    moments (au):
        112.00000000          0.00000000          0.00000000          0.00000000
       4571.24080837        300.18680379        192.05117237          0.00000000
          0.00000000          0.00000000       2331.66818728          5.57623446
        179.73108759          6.89074537        667.17167645      -1398.18624302
       -160.64264122         -3.58013231        -45.48617262       -203.03031927
     401196.24578335       2674.08645045       1342.94709096      -3886.20206805
      -2105.76439941        600.67224076        213.91022687       -110.92747592
        -37.41628456       6592.98124971       6109.57904765        202.04015699
        502.58762168         68.78650862        -63.10542773
 Total      moments (au):
          0.00000000          0.65597844          0.61971724         -1.10605672
        -65.57556258        -67.47347126        -64.82273366          0.61497848
          3.93660990          6.20109779        -10.34890642         -9.30244821
          2.20235622         -5.03410857          1.02025031        -10.77339915
          0.39557690          4.08160315         -0.07251522          2.04713750
     -17729.96935119      -1251.78371713       -822.12721098       -103.14419464
        227.80651846         64.36088860         64.00615636         -1.02239378
         65.71311318      -2936.41654862      -2965.59889942       -310.70289007
          1.69633806         15.18725294         -1.65878241
 Traceless Quadrup. (au):
          0.38169325         -1.51621543          1.13452218          0.61497848
          3.93660990          6.20109779
 Charge=              0.0000 electrons
 Dipole moment (field-independent basis, Debye):
    X=              1.6673    Y=              1.5752    Z=             -2.8113  Tot=              3.6283
 Quadrupole moment (field-independent basis, Debye-Ang):
   XX=            -88.2014   YY=            -90.7541   ZZ=            -87.1888
   XY=              0.8272   XZ=              5.2949   YZ=              8.3407
 Traceless Quadrupole moment (field-independent basis, Debye-Ang):
   XX=              0.5134   YY=             -2.0394   ZZ=              1.5260
   XY=              0.8272   XZ=              5.2949   YZ=              8.3407
 Octapole moment (field-independent basis, Debye-Ang**2):
  XXX=             -7.3660  YYY=             -6.6211  ZZZ=              1.5676  XYY=             -3.5831
  XXY=              0.7262  XXZ=             -7.6681  XZZ=              0.2816  YZZ=              2.9051
  YYZ=             -0.0516  XYZ=              1.4571
 Hexadecapole moment (field-independent basis, Debye-Ang**3):
 XXXX=          -6677.9562 YYYY=           -471.4817 ZZZZ=           -309.6525 XXXY=            -38.8490
 XXXZ=             85.8029 YYYX=             24.2414 YYYZ=             24.1078 ZZZX=             -0.3851
 ZZZY=             24.7507 XXYY=          -1105.9952 XXZZ=          -1116.9867 YYZZ=           -117.0256
 XXYZ=              0.6389 YYXZ=              5.7202 ZZXY=             -0.6248
 N-N= 9.638579609279D+02 E-N=-3.448630489433D+03  KE= 6.489106589208D+02
 Entering OneElI...
 OneElI was handed    33256249 working-precision words.
 Calculate electrostatic properties
    NBasis =   254  MinDer = 0  MaxDer = 0
    NGrid  =    36  NMatD  =   1
 Requested accuracy = 0.1000D-12
 PrsmSu:  NPrtUS=   1 ThrOK=F IAlg=1 NPAlg=1 LenDen=           0.
 Prism:   IPart=     0 DynPar=F LinDyn=F Incr=         512.
 PRISM was handed    32965755 working-precision words and  3568 shell-pairs
 IPart=  0 NShTot=      128448 NBatch=        3568 AvBLen=        36.0
 PrSmSu:  NxtVal=            513.
 --------------------------------------------------------
       Center         ----      EFG at Nuclei      ----
                      3XX-RR        3YY-RR        3ZZ-RR
 --------------------------------------------------------
     1   Atom        0.034618     -0.051643      0.017025
     2   Atom        0.064239     -0.009334     -0.054904
     3   Atom       -0.170455      0.084052      0.086403
     4   Atom        0.456736     -0.149146     -0.307590
     5   Atom        0.113963     -0.162821      0.048857
     6   Atom        0.370788     -0.173420     -0.197368
     7   Atom       -0.081139      0.074781      0.006358
     8   Atom       -0.616166     -0.470186      1.086352
     9   Atom        1.938234     -0.803612     -1.134622
    10   Atom        1.991431     -0.867161     -1.124270
    11   Atom       -0.023247      0.016158      0.007089
    12   Atom        0.030886     -0.022276     -0.008609
    13   Atom       -0.009764      0.002831      0.006933
    14   Atom        0.005502     -0.003819     -0.001682
    15   Atom        0.020194      0.120888     -0.141083
    16   Atom        0.153563     -0.269773      0.116209
    17   Atom        0.159050      0.098948     -0.257998
    18   Atom        0.045436     -0.177704      0.132267
    19   Atom        0.107439     -0.057376     -0.050063
    20   Atom        0.214003      0.194542     -0.408545
    21   Atom       -0.261828      0.119052      0.142776
    22   Atom        0.150045      0.141585     -0.291630
    23   Atom        0.142036      0.152280     -0.294316
    24   Atom        0.141694     -0.262949      0.121255
    25   Atom        0.170274     -0.322698      0.152424
    26   Atom        0.258332      0.196633     -0.454965
    27   Atom        0.258589     -0.429631      0.171041
    28   Atom        0.147457     -0.271466      0.124009
    29   Atom        0.147841      0.146740     -0.294581
    30   Atom        0.141039     -0.274811      0.133772
    31   Atom        0.147705      0.151782     -0.299488
    32   Atom        0.147403     -0.274987      0.127584
    33   Atom        0.147728      0.151238     -0.298966
    34   Atom       -0.152609      0.062396      0.090213
    35   Atom        0.149972      0.150883     -0.300854
    36   Atom        0.150677     -0.278588      0.127911
 --------------------------------------------------------
                        XY            XZ            YZ
 --------------------------------------------------------
     1   Atom       -0.085375     -0.068656     -0.060688
     2   Atom        0.042501      0.069702     -0.090344
     3   Atom        0.042671     -0.030713      0.081446
     4   Atom       -0.600088      0.457415     -0.348183
     5   Atom       -0.008510      0.002238     -0.083077
     6   Atom       -0.008878      0.000130     -0.140047
     7   Atom       -0.091758      0.074983      0.047773
     8   Atom        0.030620     -0.041989      0.141088
     9   Atom       -0.049696     -0.000788     -0.824756
    10   Atom       -0.061430     -0.001863     -0.820936
    11   Atom       -0.005467     -0.007782      0.020402
    12   Atom        0.004905      0.000080      0.005759
    13   Atom        0.002171     -0.000831      0.016772
    14   Atom       -0.007123      0.006187      0.004954
    15   Atom        0.049441     -0.210214      0.080165
    16   Atom       -0.000905     -0.011371      0.123337
    17   Atom        0.016694     -0.018525      0.135897
    18   Atom        0.202661     -0.030043      0.057094
    19   Atom       -0.064589      0.065885      0.223147
    20   Atom       -0.033055      0.014587     -0.026303
    21   Atom       -0.204586      0.167615      0.042539
    22   Atom       -0.006332     -0.000268     -0.044498
    23   Atom        0.002285      0.005343     -0.042546
    24   Atom       -0.000300     -0.005277     -0.105521
    25   Atom       -0.016763     -0.004072     -0.206128
    26   Atom       -0.001112      0.002692     -0.030619
    27   Atom       -0.014212      0.001654     -0.129066
    28   Atom        0.000793     -0.002614     -0.108888
    29   Atom        0.003834     -0.002544     -0.044167
    30   Atom        0.001734     -0.004170     -0.107057
    31   Atom        0.001052      0.000490     -0.040719
    32   Atom       -0.006136     -0.002440     -0.107848
    33   Atom        0.001200      0.002080     -0.040841
    34   Atom        0.166955     -0.140182      0.079394
    35   Atom       -0.002505      0.002585     -0.041231
    36   Atom       -0.006887      0.001127     -0.109433
 --------------------------------------------------------


 ---------------------------------------------------------------------------------
              Nuclear Quadrupole in Principal Axis System
 ---------------------------------------------------------------------------------

       Atom             a.u.   MegaHertz   Gauss  10(-4) cm-1        Axes

              Baa    -0.1508   -20.234    -7.220    -6.749  0.5068  0.7234  0.4689
     1 C(13)  Bbb     0.0487     6.541     2.334     2.182  0.2165 -0.6333  0.7430
              Bcc     0.1020    13.693     4.886     4.568  0.8345 -0.2750 -0.4776
 
              Baa    -0.1553   -20.841    -7.437    -6.952 -0.3470  0.5645  0.7489
     2 C(13)  Bbb     0.0589     7.909     2.822     2.638  0.2204  0.8253 -0.5200
              Bcc     0.0964    12.932     4.614     4.314  0.9116  0.0154  0.4108
 
              Baa    -0.1849   -24.817    -8.855    -8.278  0.9639 -0.2045  0.1705
     3 C(13)  Bbb     0.0181     2.423     0.865     0.808 -0.2651 -0.6765  0.6871
              Bcc     0.1669    22.394     7.991     7.470  0.0252  0.7075  0.7063
 
              Baa    -0.5866   -22.623    -8.073    -7.546  0.0674  0.6763  0.7335
     4 N(14)  Bbb    -0.4782   -18.444    -6.581    -6.152  0.6239  0.5452 -0.5600
              Bcc     1.0648    41.067    14.654    13.699  0.7786 -0.4954  0.3852
 
              Baa    -0.1917   -25.725    -9.179    -8.581  0.0239  0.9450  0.3261
     5 C(13)  Bbb     0.0769    10.323     3.683     3.443 -0.1303 -0.3205  0.9382
              Bcc     0.1148    15.403     5.496     5.138  0.9912 -0.0650  0.1155
 
              Baa    -0.3260   -43.746   -15.610   -14.592  0.0085  0.6764  0.7364
     6 C(13)  Bbb    -0.0449    -6.031    -2.152    -2.012  0.0159  0.7363 -0.6765
              Bcc     0.3709    49.777    17.762    16.604  0.9998 -0.0175  0.0045
 
              Baa    -0.1682   -22.569    -8.053    -7.528  0.8017  0.3916 -0.4516
     7 C(13)  Bbb     0.0492     6.604     2.356     2.203  0.4719  0.0489  0.8803
              Bcc     0.1190    15.965     5.697     5.326 -0.3668  0.9189  0.1456
 
              Baa    -0.6253   -24.116    -8.605    -8.044  0.9720 -0.2309  0.0429
     8 N(14)  Bbb    -0.4746   -18.306    -6.532    -6.106  0.2337  0.9689 -0.0813
              Bcc     1.0999    42.422    15.137    14.150 -0.0228  0.0890  0.9958
 
              Baa    -1.8106   131.013    46.749    43.701  0.0086  0.6339  0.7734
     9 O(17)  Bbb    -0.1286     9.307     3.321     3.104  0.0183  0.7732 -0.6339
              Bcc     1.9392  -140.320   -50.069   -46.806  0.9998 -0.0196  0.0050
 
              Baa    -1.8271   132.208    47.175    44.100  0.0108  0.6503  0.7596
    10 O(17)  Bbb    -0.1657    11.992     4.279     4.000  0.0211  0.7593 -0.6504
              Bcc     1.9928  -144.200   -51.454   -48.100  0.9997 -0.0230  0.0055
 
              Baa    -0.0251    -3.373    -1.204    -1.125  0.9745  0.0186  0.2236
    11 C(13)  Bbb    -0.0088    -1.187    -0.424    -0.396 -0.1592 -0.6448  0.7476
              Bcc     0.0340     4.560     1.627     1.521 -0.1580  0.7642  0.6254
 
              Baa    -0.0248    -3.322    -1.185    -1.108 -0.0823  0.9388 -0.3344
    12 C(13)  Bbb    -0.0066    -0.884    -0.315    -0.295 -0.0454  0.3317  0.9423
              Bcc     0.0313     4.206     1.501     1.403  0.9956  0.0927  0.0154
 
              Baa    -0.0133    -1.791    -0.639    -0.597 -0.5214  0.6469 -0.5564
    13 C(13)  Bbb    -0.0085    -1.135    -0.405    -0.378  0.8529  0.3752 -0.3629
              Bcc     0.0218     2.925     1.044     0.976  0.0260  0.6638  0.7474
 
              Baa    -0.0127    -1.705    -0.608    -0.569  0.4600  0.6843 -0.5658
    14 C(13)  Bbb     0.0023     0.310     0.110     0.103 -0.0284  0.6482  0.7609
              Bcc     0.0104     1.395     0.498     0.465  0.8875 -0.3340  0.3176
 
              Baa    -0.3063  -163.433   -58.317   -54.515  0.5515 -0.2151  0.8060
    15 H(1)   Bbb     0.1407    75.089    26.794    25.047  0.2740  0.9593  0.0685
              Bcc     0.1656    88.343    31.523    29.468  0.7879 -0.1830 -0.5880
 
              Baa    -0.3058  -163.176   -58.225   -54.430 -0.0051  0.9598 -0.2806
    16 H(1)   Bbb     0.1417    75.619    26.983    25.224  0.6859  0.2075  0.6975
              Bcc     0.1641    87.557    31.243    29.206  0.7277 -0.1890 -0.6594
 
[...]
 7799 Fit       0.010505
 7800 Fit      -0.010936
 7801 Fit      -0.008236
 7802 Fit      -0.008141
 7803 Fit      -0.011043
 7804 Fit      -0.014585
 7805 Fit      -0.014068
 7806 Fit      -0.010789
 7807 Fit      -0.006132
 7808 Fit      -0.005333
 7809 Fit      -0.005651
 7810 Fit      -0.007364
 7811 Fit      -0.010944
 7812 Fit      -0.015898
 7813 Fit      -0.019723
 7814 Fit      -0.020101
 7815 Fit      -0.017571
 7816 Fit      -0.014036
 7817 Fit      -0.010695
 7818 Fit      -0.007982
 7819 Fit      -0.004328
 7820 Fit      -0.003478
 7821 Fit      -0.003213
 7822 Fit      -0.003437
 7823 Fit      -0.004334
 7824 Fit      -0.006407
 7825 Fit      -0.010337
 7826 Fit      -0.021470
 7827 Fit      -0.017409
 7828 Fit      -0.013787
 7829 Fit      -0.010702
 7830 Fit      -0.008084
 7831 Fit      -0.005906
 7832 Fit      -0.001447
 7833 Fit      -0.001501
 7834 Fit      -0.001864
 7835 Fit      -0.002944
 7836 Fit      -0.005543
 7837 Fit      -0.010732
 7838 Fit      -0.022389
 7839 Fit      -0.017987
 7840 Fit      -0.014334
 7841 Fit      -0.011293
 7842 Fit      -0.008665
 7843 Fit       0.000125
 7844 Fit       0.000383
 7845 Fit       0.000601
 7846 Fit      -0.024355
 7847 Fit      -0.019507
 7848 Fit      -0.015610
 7849 Fit      -0.012454
 7850 Fit      -0.009800
 7851 Fit       0.001676
 7852 Fit       0.002380
 7853 Fit      -0.026125
 7854 Fit      -0.020939
 7855 Fit      -0.016832
 7856 Fit      -0.013590
 7857 Fit      -0.011001
 7858 Fit       0.002930
 7859 Fit       0.003515
 7860 Fit       0.003813
 7861 Fit       0.002967
 7862 Fit       0.003635
 7863 Fit       0.004322
 7864 Fit       0.005018
 7865 Fit       0.005647
 7866 Fit       0.003784
 7867 Fit       0.004429
 7868 Fit       0.005174
 7869 Fit       0.006040
 7870 Fit       0.007030
 7871 Fit       0.004645
 7872 Fit       0.005291
 7873 Fit       0.006136
 7874 Fit       0.007192
 7875 Fit       0.008482
 7876 Fit       0.005379
 7877 Fit       0.006072
 7878 Fit       0.007038
 7879 Fit       0.008297
 7880 Fit       0.009899
 7881 Fit       0.005609
 7882 Fit       0.006208
 7883 Fit       0.007180
 7884 Fit       0.008528
 7885 Fit       0.010352
 7886 Fit       0.006159
 7887 Fit       0.007098
 7888 Fit       0.008450
 7889 Fit       0.010342
 7890 Fit       0.006017
 7891 Fit       0.007024
 7892 Fit       0.008457
 7893 Fit       0.010481
 7894 Fit       0.005987
 7895 Fit       0.007270
 7896 Fit       0.009034
 7897 Fit       0.004871
 7898 Fit       0.006164
 7899 Fit       0.007812
 7900 Fit       0.010081
 7901 Fit       0.004878
 7902 Fit       0.006425
 7903 Fit       0.008374
 7904 Fit       0.003991
 7905 Fit       0.005613
 7906 Fit       0.007564
 7907 Fit       0.010158
 7908 Fit       0.006632
 7909 Fit       0.008943
 7910 Fit       0.003242
 7911 Fit       0.004077
 7912 Fit       0.005155
 7913 Fit       0.006429
 7914 Fit       0.007742
 7915 Fit       0.008793
 7916 Fit       0.011612
 7917 Fit       0.008953
 7918 Fit       0.007096
 7919 Fit       0.005854
 7920 Fit       0.005043
 7921 Fit       0.004559
 7922 Fit       0.003608
 7923 Fit       0.003781
 7924 Fit       0.004319
 7925 Fit       0.005105
 7926 Fit       0.006044
 7927 Fit       0.006995
 7928 Fit       0.007821
 7929 Fit       0.012046
 7930 Fit       0.009611
 7931 Fit       0.007752
 7932 Fit       0.006460
 7933 Fit       0.005626
 7934 Fit       0.005175
 7935 Fit       0.004491
 7936 Fit       0.004444
 7937 Fit       0.004748
 7938 Fit       0.005321
 7939 Fit       0.006064
 7940 Fit       0.006882
 7941 Fit       0.007758
 7942 Fit       0.011731
 7943 Fit       0.009802
 7944 Fit       0.008137
 7945 Fit       0.006907
 7946 Fit       0.006100
 7947 Fit       0.005663
 7948 Fit       0.005524
 7949 Fit       0.005499
 7950 Fit       0.005240
 7951 Fit       0.005140
 7952 Fit       0.005340
 7953 Fit       0.005833
 7954 Fit       0.006541
 7955 Fit       0.007418
 7956 Fit       0.008517
 7957 Fit       0.009880
 7958 Fit       0.011751
 7959 Fit       0.011294
 7960 Fit       0.010063
 7961 Fit       0.008621
 7962 Fit       0.007397
 7963 Fit       0.006543
 7964 Fit       0.006037
 7965 Fit       0.005750
 7966 Fit       0.005983
 7967 Fit       0.005830
 7968 Fit       0.006011
 7969 Fit       0.006580
 7970 Fit       0.007471
 7971 Fit       0.008591
 7972 Fit       0.009602
 7973 Fit       0.009842
 7974 Fit       0.009103
 7975 Fit       0.007944
 7976 Fit       0.006964
 7977 Fit       0.006344
 7978 Fit       0.006637
 7979 Fit       0.006703
 7980 Fit       0.007496
 7981 Fit       0.008401
 7982 Fit       0.008229
 7983 Fit       0.007261
 7984 Fit       0.007435
 7985 Fit      -0.006924
 7986 Fit      -0.005670
 7987 Fit      -0.004730
 7988 Fit      -0.009705
 7989 Fit      -0.007751
 7990 Fit      -0.006164
 7991 Fit      -0.004952
 7992 Fit      -0.004067
 7993 Fit      -0.003436
 7994 Fit      -0.002968
 7995 Fit      -0.008456
 7996 Fit      -0.006625
 7997 Fit      -0.005182
 7998 Fit      -0.004097
 7999 Fit      -0.003312
 8000 Fit      -0.002758
 8001 Fit      -0.002363
 8002 Fit      -0.002043
 8003 Fit      -0.006260
 8004 Fit      -0.004767
 8005 Fit      -0.003630
 8006 Fit      -0.002803
 8007 Fit      -0.002227
 8008 Fit      -0.001839
 8009 Fit      -0.001572
 8010 Fit      -0.001347
 8011 Fit      -0.005458
 8012 Fit      -0.004109
 8013 Fit      -0.003033
 8014 Fit      -0.002231
 8015 Fit      -0.001665
 8016 Fit      -0.001291
 8017 Fit      -0.001061
 8018 Fit      -0.000921
 8019 Fit      -0.000807
 8020 Fit      -0.003428
 8021 Fit      -0.002485
 8022 Fit      -0.001724
 8023 Fit      -0.001162
 8024 Fit      -0.000780
 8025 Fit      -0.000551
 8026 Fit      -0.000443
 8027 Fit      -0.000418
 8028 Fit      -0.000435
 8029 Fit      -0.001910
 8030 Fit      -0.001330
 8031 Fit      -0.000789
 8032 Fit      -0.000371
 8033 Fit      -0.000091
 8034 Fit       0.000055
 8035 Fit       0.000084
 8036 Fit       0.000017
 8037 Fit      -0.000131
 8038 Fit      -0.000032
 8039 Fit       0.000172
 8040 Fit       0.000400
 8041 Fit       0.000565
 8042 Fit       0.000634
 8043 Fit       0.000601
 8044 Fit       0.000464
 8045 Fit       0.000222
 8046 Fit       0.001715
 8047 Fit       0.001405
 8048 Fit       0.001314
 8049 Fit       0.001287
 8050 Fit       0.001239
 8051 Fit       0.001129
 8052 Fit       0.000936
 8053 Fit       0.000641
 8054 Fit       0.000204
 8055 Fit       0.003384
 8056 Fit       0.002663
 8057 Fit       0.002251
 8058 Fit       0.001995
 8059 Fit       0.001780
 8060 Fit       0.001538
 8061 Fit       0.001229
 8062 Fit       0.000814
 8063 Fit       0.004658
 8064 Fit       0.003727
 8065 Fit       0.003065
 8066 Fit       0.002607
 8067 Fit       0.002243
 8068 Fit       0.001895
 8069 Fit       0.001513
 8070 Fit       0.004806
 8071 Fit       0.003944
 8072 Fit       0.003269
 8073 Fit       0.002754
 8074 Fit       0.002328
 8075 Fit       0.001959
 8076 Fit       0.004152
 8077 Fit       0.003422
 8078 Fit       0.002900
 8079 Fit      -0.001828
 8080 Fit      -0.001383
 8081 Fit      -0.001137
 8082 Fit      -0.001579
 8083 Fit      -0.002459
 8084 Fit      -0.002687
 8085 Fit      -0.002066
 8086 Fit      -0.001103
 8087 Fit      -0.000760
 8088 Fit      -0.000606
 8089 Fit      -0.000738
 8090 Fit      -0.001286
 8091 Fit      -0.002244
 8092 Fit      -0.003284
 8093 Fit      -0.003858
 8094 Fit      -0.003712
 8095 Fit      -0.003081
 8096 Fit      -0.002312
 8097 Fit      -0.001623
 8098 Fit      -0.000959
 8099 Fit      -0.000654
 8100 Fit      -0.000402
 8101 Fit      -0.000216
 8102 Fit      -0.000172
 8103 Fit      -0.000369
 8104 Fit      -0.000904
 8105 Fit      -0.001821
 8106 Fit      -0.003036
 8107 Fit      -0.004273
 8108 Fit      -0.005124
 8109 Fit      -0.005303
 8110 Fit      -0.004888
 8111 Fit      -0.004158
 8112 Fit      -0.003345
 8113 Fit      -0.002572
 8114 Fit      -0.001899
 8115 Fit      -0.001361
 8116 Fit      -0.000919
 8117 Fit      -0.000681
 8118 Fit      -0.000439
 8119 Fit      -0.000164
 8120 Fit       0.000096
 8121 Fit       0.000260
 8122 Fit       0.000248
 8123 Fit      -0.000020
 8124 Fit      -0.000624
 8125 Fit      -0.001614
 8126 Fit      -0.007004
 8127 Fit      -0.006448
 8128 Fit      -0.005583
 8129 Fit      -0.004652
 8130 Fit      -0.003765
 8131 Fit      -0.002962
 8132 Fit      -0.002257
 8133 Fit      -0.001673
 8134 Fit      -0.001229
 8135 Fit      -0.000942
 8136 Fit      -0.000822
 8137 Fit      -0.000647
 8138 Fit      -0.000343
 8139 Fit       0.000051
 8140 Fit       0.000431
 8141 Fit       0.000708
 8142 Fit       0.000824
 8143 Fit       0.000723
 8144 Fit       0.000330
 8145 Fit      -0.000426
 8146 Fit      -0.008552
 8147 Fit      -0.007517
 8148 Fit      -0.006378
 8149 Fit      -0.005305
 8150 Fit      -0.004342
 8151 Fit      -0.003483
 8152 Fit      -0.002715
 8153 Fit      -0.002046
 8154 Fit      -0.001508
 8155 Fit      -0.001141
 8156 Fit       0.000320
 8157 Fit       0.000849
 8158 Fit       0.001239
 8159 Fit       0.001478
 8160 Fit       0.001540
 8161 Fit       0.001367
 8162 Fit      -0.009737
 8163 Fit      -0.008315
 8164 Fit      -0.006995
 8165 Fit      -0.005845
 8166 Fit      -0.004850
 8167 Fit      -0.003968
 8168 Fit      -0.003164
 8169 Fit      -0.002423
 8170 Fit      -0.001768
 8171 Fit      -0.001260
 8172 Fit      -0.000921
 8173 Fit      -0.000694
 8174 Fit      -0.000724
 8175 Fit      -0.000392
 8176 Fit      -0.000733
 8177 Fit      -0.000890
 8178 Fit      -0.000466
 8179 Fit      -0.000275
 8180 Fit      -0.000086
 8181 Fit      -0.000445
 8182 Fit      -0.000872
 8183 Fit      -0.001243
 8184 Fit      -0.000647
 8185 Fit      -0.000179
 8186 Fit       0.000081
 8187 Fit       0.000108
 8188 Fit       0.000179
 8189 Fit      -0.000199
 8190 Fit      -0.000652
 8191 Fit      -0.001096
 8192 Fit      -0.001150
 8193 Fit      -0.000476
 8194 Fit       0.000032
 8195 Fit       0.000355
 8196 Fit       0.000484
 8197 Fit       0.000420
 8198 Fit       0.000373
 8199 Fit      -0.000021
 8200 Fit      -0.000492
 8201 Fit      -0.000971
 8202 Fit      -0.001144
 8203 Fit      -0.000425
 8204 Fit       0.000122
 8205 Fit       0.000506
 8206 Fit       0.000722
 8207 Fit       0.000767
 8208 Fit       0.000646
 8209 Fit       0.000477
 8210 Fit       0.000083
 8211 Fit      -0.000381
 8212 Fit      -0.000866
 8213 Fit      -0.001047
 8214 Fit      -0.000372
 8215 Fit       0.000160
 8216 Fit       0.000559
 8217 Fit       0.000824
 8218 Fit       0.000947
 8219 Fit       0.000926
 8220 Fit       0.000765
 8221 Fit       0.000479
 8222 Fit       0.000074
 8223 Fit      -0.000400
 8224 Fit      -0.000897
 8225 Fit      -0.000573
 8226 Fit      -0.000035
 8227 Fit       0.000403
 8228 Fit       0.000733
 8229 Fit       0.000942
 8230 Fit       0.001022
 8231 Fit       0.000968
 8232 Fit       0.000783
 8233 Fit       0.000376
 8234 Fit      -0.000023
 8235 Fit      -0.000487
 8236 Fit      -0.000978
 8237 Fit      -0.000675
 8238 Fit      -0.000233
 8239 Fit       0.000173
 8240 Fit       0.000516
 8241 Fit       0.000773
 8242 Fit       0.000927
 8243 Fit       0.000965
 8244 Fit       0.000883
 8245 Fit       0.000684
 8246 Fit       0.000174
 8247 Fit      -0.000217
 8248 Fit      -0.000670
 8249 Fit      -0.001149
 8250 Fit      -0.000428
 8251 Fit      -0.000134
 8252 Fit       0.000175
 8253 Fit       0.000449
 8254 Fit       0.000655
 8255 Fit       0.000771
 8256 Fit       0.000784
 8257 Fit       0.000687
 8258 Fit       0.000481
 8259 Fit      -0.000115
 8260 Fit      -0.000507
 8261 Fit      -0.000960
 8262 Fit      -0.000249
 8263 Fit      -0.000025
 8264 Fit       0.000203
 8265 Fit       0.000386
 8266 Fit       0.000492
 8267 Fit       0.000500
 8268 Fit       0.000400
 8269 Fit       0.000193
 8270 Fit      -0.000470
 8271 Fit      -0.000861
 8272 Fit      -0.000304
 8273 Fit      -0.000135
 8274 Fit       0.000023
 8275 Fit       0.000122
 8276 Fit       0.000132
 8277 Fit       0.000038
 8278 Fit      -0.000165
 8279 Fit      -0.000860
 8280 Fit      -0.000485
 8281 Fit      -0.000374
 8282 Fit      -0.000295
 8283 Fit      -0.000289
 8284 Fit      -0.000377
 8285 Fit      -0.000569
 8286 Fit      -0.000703
 8287 Fit      -0.000776
 8288 Fit      -0.000953
 8289 Fit      -0.000750
 8290 Fit      -0.000795
 8291 Fit       0.001113
 8292 Fit       0.000600
 8293 Fit       0.000200
 8294 Fit      -0.000095
 8295 Fit      -0.000306
 8296 Fit      -0.000459
 8297 Fit      -0.000579
 8298 Fit      -0.000676
 8299 Fit      -0.000013
 8300 Fit      -0.000047
 8301 Fit      -0.000045
 8302 Fit       0.000001
 8303 Fit       0.000099
 8304 Fit       0.000259
 8305 Fit       0.000490
 8306 Fit       0.000794
 8307 Fit       0.001172
 8308 Fit       0.001615
 8309 Fit       0.002100
 8310 Fit       0.003330
 8311 Fit       0.002637
 8312 Fit       0.002018
 8313 Fit       0.001488
 8314 Fit       0.001056
 8315 Fit       0.000720
 8316 Fit       0.000469
 8317 Fit       0.000285
 8318 Fit       0.000151
 8319 Fit       0.000053
 8320 Fit       0.000733
 8321 Fit       0.000701
 8322 Fit       0.000715
 8323 Fit       0.000780
 8324 Fit       0.000908
 8325 Fit       0.001110
 8326 Fit       0.001397
 8327 Fit       0.001773
 8328 Fit       0.002240
 8329 Fit       0.002800
 8330 Fit       0.004795
 8331 Fit       0.003976
 8332 Fit       0.003254
 8333 Fit       0.002625
 8334 Fit       0.002096
 8335 Fit       0.001670
 8336 Fit       0.001343
 8337 Fit       0.001100
 8338 Fit       0.000927
 8339 Fit       0.000807
 8340 Fit       0.001454
 8341 Fit       0.001424
 8342 Fit       0.001453
 8343 Fit       0.001551
 8344 Fit       0.001729
 8345 Fit       0.002001
 8346 Fit       0.002378
 8347 Fit       0.002867
 8348 Fit       0.003483
 8349 Fit       0.005206
 8350 Fit       0.004470
 8351 Fit       0.003775
 8352 Fit       0.003159
 8353 Fit       0.002641
 8354 Fit       0.002229
 8355 Fit       0.001917
 8356 Fit       0.001693
 8357 Fit       0.001543
 8358 Fit       0.002129
 8359 Fit       0.002104
 8360 Fit       0.002171
 8361 Fit       0.002342
 8362 Fit       0.002632
 8363 Fit       0.003054
 8364 Fit       0.003609
 8365 Fit       0.004282
 8366 Fit       0.004973
 8367 Fit       0.005412
 8368 Fit       0.005366
 8369 Fit       0.004931
 8370 Fit       0.004332
 8371 Fit       0.003724
 8372 Fit       0.003188
 8373 Fit       0.002761
 8374 Fit       0.002449
 8375 Fit       0.002242
 8376 Fit       0.002746
 8377 Fit       0.002746
 8378 Fit       0.002922
 8379 Fit       0.003287
 8380 Fit       0.003823
 8381 Fit       0.004421
 8382 Fit       0.004812
 8383 Fit       0.004737
 8384 Fit       0.004287
 8385 Fit       0.003727
 8386 Fit       0.003244
 8387 Fit       0.002912
 8388 Fit       0.003306
 8389 Fit       0.003419
 8390 Fit       0.003893
 8391 Fit       0.004307
 8392 Fit       0.004111
 8393 Fit       0.003600
 8394 Fit       0.003818
 8395 Fit      -0.000027
 8396 Fit      -0.000394
 8397 Fit       0.000313
 8398 Fit       0.000866
 8399 Fit       0.001138
 8400 Fit      -0.000693
 8401 Fit       0.000010
 8402 Fit       0.000690
 8403 Fit       0.001267
 8404 Fit       0.001693
 8405 Fit       0.001932
 8406 Fit       0.001933
 8407 Fit      -0.000903
 8408 Fit      -0.000218
 8409 Fit       0.000492
 8410 Fit       0.001155
 8411 Fit       0.001735
 8412 Fit       0.002216
 8413 Fit       0.002592
 8414 Fit       0.002835
 8415 Fit       0.002869
 8416 Fit      -0.000396
 8417 Fit       0.000323
 8418 Fit       0.001023
 8419 Fit       0.001668
 8420 Fit       0.002243
 8421 Fit       0.002754
 8422 Fit       0.003214
 8423 Fit       0.003627
 8424 Fit       0.003945
 8425 Fit      -0.000592
 8426 Fit       0.000106
 8427 Fit       0.000806
 8428 Fit       0.001471
 8429 Fit       0.002083
 8430 Fit       0.002645
 8431 Fit       0.003172
 8432 Fit       0.003696
 8433 Fit       0.004250
 8434 Fit       0.004848
 8435 Fit      -0.000727
 8436 Fit      -0.000023
 8437 Fit       0.000690
 8438 Fit       0.001375
 8439 Fit       0.002014
 8440 Fit       0.002607
 8441 Fit       0.003171
 8442 Fit       0.003743
 8443 Fit       0.004377
 8444 Fit       0.005145
 8445 Fit      -0.000897
 8446 Fit      -0.000207
 8447 Fit       0.000497
 8448 Fit       0.001179
 8449 Fit       0.001821
 8450 Fit       0.002422
 8451 Fit       0.002994
 8452 Fit       0.003568
 8453 Fit       0.004198
 8454 Fit       0.004966
 8455 Fit      -0.001058
 8456 Fit      -0.000377
 8457 Fit       0.000314
 8458 Fit       0.000988
 8459 Fit       0.001625
 8460 Fit       0.002224
 8461 Fit       0.002794
 8462 Fit       0.003365
 8463 Fit       0.003984
 8464 Fit       0.004731
 8465 Fit       0.005728
 8466 Fit      -0.000474
 8467 Fit       0.000222
 8468 Fit       0.000896
 8469 Fit       0.001533
 8470 Fit       0.002131
 8471 Fit       0.002707
 8472 Fit       0.003290
 8473 Fit       0.003939
 8474 Fit       0.004736
 8475 Fit      -0.000540
 8476 Fit       0.000156
 8477 Fit       0.000824
 8478 Fit       0.001452
 8479 Fit       0.002044
 8480 Fit       0.002618
 8481 Fit       0.003213
 8482 Fit       0.003884
 8483 Fit       0.004699
 8484 Fit      -0.000622
 8485 Fit       0.000047
 8486 Fit       0.000686
 8487 Fit       0.001285
 8488 Fit       0.001848
 8489 Fit       0.002392
 8490 Fit       0.002947
 8491 Fit       0.003531
 8492 Fit       0.000088
 8493 Fit       0.000701
 8494 Fit       0.001267
 8495 Fit       0.001791
 8496 Fit       0.002275
 8497 Fit       0.002685
 8498 Fit       0.000679
 8499 Fit       0.001162
 -----------------------------------------------------------------
 Leave Link  602 at Tue Apr  1 15:53:35 2014, MaxMem=   33554432 cpu:       1.4

 Test job not archived.
 1\1\GINC-HANA\FOpt\RHF\6-31G(d)\C10H22N2O2\PIEONG\01-Apr-2014\0\\#HF/6
 -31G* SCF=tight Test Pop=MK iop(6/33=2) iop(6/42=6) opt # iop(6/50=1)\
 \remark line goes here\\0,1\C,0.2966559291,-0.2084200012,-5.1577723006
 \C,-1.0671241868,-0.3779559321,-4.5561241922\C,-0.1080460081,0.6104577
 396,-3.9762202409\N,-1.7764059851,-0.1086520122,0.7967020863\C,-0.4260
 495423,0.4019265898,0.9852521679\C,0.3757866729,0.1304708768,-0.298533
 5419\C,-0.2783445004,0.714644725,-1.5553520334\N,0.4923507464,0.299370
 669,-2.714055733\O,1.680802576,0.6605754649,-0.188563024\O,0.504321081
 7,-1.2346766652,-0.4322466814\C,0.3000539328,-0.1369231311,2.229230558
 2\C,-0.3622225559,0.2658242618,3.5496159624\C,0.4111627662,-0.22661262
 1,4.7749077544\C,-0.2480567802,0.1666340637,6.0964011179\H,0.379096258
 5,0.2784401366,-6.1135627248\H,1.0158160041,-0.9893591667,-4.987939226
 3\H,-1.2518742047,-1.270913474,-3.9865417267\H,-1.917547695,-0.0076642
 686,-5.1009763947\H,-0.3253656245,1.6540230941,-4.1635703927\H,-1.7516
 349472,-1.1084577282,0.7273592019\H,-2.3624939405,0.1285346136,1.57198
 62116\H,-0.5113948123,1.484243477,1.0798549475\H,-0.3481909619,1.80161
 90526,-1.4583697117\H,-1.2826394253,0.3324908585,-1.6467986126\H,1.417
 838054,0.6780802442,-2.6636545743\H,1.6322649114,1.5918391066,-0.01700
 68468\H,0.7620594019,-1.4075011553,-1.3323664257\H,1.3241900235,0.2194
 868032,2.2236473073\H,0.3526802476,-1.2192475558,2.1586234697\H,-1.375
 9534056,-0.1265770512,3.5987175813\H,-0.4518626148,1.3510668432,3.5982
 218987\H,1.4234704665,0.1699160244,4.7439432165\H,0.5071410265,-1.3089
 406746,4.7267298522\H,0.3242894773,-0.1956423242,6.9448063529\H,-0.328
 699182,1.2462113134,6.1890677971\H,-1.2500732039,-0.2463121966,6.17358
 68999\\Version=EM64L-G09RevC.01\State=1-A\HF=-650.0618397\RMSD=3.510e-
 09\RMSF=4.132e-06\Dipole=-0.2553949,0.8433492,-0.0656395\Quadrupole=-3
 .86249,1.3442487,2.5182412,2.882561,-1.9717221,-1.3972227\PG=C01 [X(C1
 0H22N2O2)]\\@


 THERE IS MUCH PLEASURE TO BE GAINED FROM USELESS KNOWLEDGE

                                       -- BERTRAND RUSSELL
 Job cpu time:  0 days  0 hours 16 minutes 34.8 seconds.
 File lengths (MBytes):  RWF=     46 Int=      0 D2E=      0 Chk=      7 Scr=      1
 Normal termination of Gaussian 09 at Tue Apr  1 15:53:35 2014.
